+ 0.25 0 1 tcp 960 ------- 0 0.0 1.0 0 0
- 0.25 0 1 tcp 960 ------- 0 0.0 1.0 0 0
+ 0.25 0 1 tcp 1000 ------- 0 0.0 1.0 1 1
+ 0.25 0 1 tcp 1000 ------- 0 0.0 1.0 2 2
+ 0.25 0 1 tcp 1000 ------- 0 0.0 1.0 3 3
+ 0.25 0 1 tcp 1000 ------- 0 0.0 1.0 4 4
+ 0.25 0 1 tcp 1000 ------- 0 0.0 1.0 5 5
+ 0.25 0 1 tcp 1000 ------- 0 0.0 1.0 6 6
+ 0.25 0 1 tcp 1000 ------- 0 0.0 1.0 7 7
+ 0.25 0 1 tcp 1000 ------- 0 0.0 1.0 8 8
+ 0.25 0 1 tcp 1000 ------- 0 0.0 1.0 9 9
+ 0.25 0 1 tcp 1000 ------- 0 0.0 1.0 10 10
+ 0.25 0 1 tcp 1000 ------- 0 0.0 1.0 11 11
+ 0.25 0 1 tcp 1000 ------- 0 0.0 1.0 12 12
+ 0.25 0 1 tcp 1000 ------- 0 0.0 1.0 13 13
+ 0.25 0 1 tcp 1000 ------- 0 0.0 1.0 14 14
+ 0.25 0 1 tcp 1000 ------- 0 0.0 1.0 15 15
+ 0.25 0 1 tcp 1000 ------- 0 0.0 1.0 16 16
+ 0.25 0 1 tcp 1000 ------- 0 0.0 1.0 17 17
+ 0.25 0 1 tcp 1000 ------- 0 0.0 1.0 18 18
+ 0.25 0 1 tcp 1000 ------- 0 0.0 1.0 19 19
+ 0.25 0 1 tcp 1000 ------- 0 0.0 1.0 20 20
+ 0.25 0 1 tcp 1000 ------- 0 0.0 1.0 21 21
+ 0.25 0 1 tcp 1000 ------- 0 0.0 1.0 22 22
+ 0.25 0 1 tcp 1000 ------- 0 0.0 1.0 23 23
+ 0.25 0 1 tcp 1000 ------- 0 0.0 1.0 24 24
+ 0.25 0 1 tcp 1000 ------- 0 0.0 1.0 25 25
+ 0.25 0 1 tcp 1000 ------- 0 0.0 1.0 26 26
+ 0.25 0 1 tcp 1000 ------- 0 0.0 1.0 27 27
+ 0.25 0 1 tcp 1000 ------- 0 0.0 1.0 28 28
+ 0.25 0 1 tcp 1000 ------- 0 0.0 1.0 29 29
+ 0.25 0 1 tcp 1000 ------- 0 0.0 1.0 30 30
+ 0.25 0 1 tcp 1000 ------- 0 0.0 1.0 31 31
+ 0.25 0 1 tcp 1000 ------- 0 0.0 1.0 32 32
+ 0.25 0 1 tcp 1000 ------- 0 0.0 1.0 33 33
+ 0.25 0 1 tcp 1000 ------- 0 0.0 1.0 34 34
+ 0.25 0 1 tcp 1000 ------- 0 0.0 1.0 35 35
+ 0.25 0 1 tcp 1000 ------- 0 0.0 1.0 36 36
+ 0.25 0 1 tcp 1000 ------- 0 0.0 1.0 37 37
+ 0.25 0 1 tcp 1000 ------- 0 0.0 1.0 38 38
+ 0.25 0 1 tcp 1000 ------- 0 0.0 1.0 39 39
+ 0.25 0 1 tcp 1000 ------- 0 0.0 1.0 40 40
+ 0.25 0 1 tcp 1000 ------- 0 0.0 1.0 41 41
+ 0.25 0 1 tcp 1000 ------- 0 0.0 1.0 42 42
+ 0.25 0 1 tcp 1000 ------- 0 0.0 1.0 43 43
+ 0.25 0 1 tcp 1000 ------- 0 0.0 1.0 44 44
+ 0.25 0 1 tcp 1000 ------- 0 0.0 1.0 45 45
+ 0.25 0 1 tcp 1000 ------- 0 0.0 1.0 46 46
+ 0.25 0 1 tcp 1000 ------- 0 0.0 1.0 47 47
+ 0.25 0 1 tcp 1000 ------- 0 0.0 1.0 48 48
+ 0.25 0 1 tcp 1000 ------- 0 0.0 1.0 49 49
+ 0.25 0 1 tcp 1000 ------- 0 0.0 1.0 50 50
+ 0.25 0 1 tcp 1000 ------- 0 0.0 1.0 51 51
+ 0.25 0 1 tcp 1000 ------- 0 0.0 1.0 52 52
+ 0.25 0 1 tcp 1000 ------- 0 0.0 1.0 53 53
+ 0.25 0 1 tcp 1000 ------- 0 0.0 1.0 54 54
+ 0.25 0 1 tcp 1000 ------- 0 0.0 1.0 55 55
+ 0.25 0 1 tcp 1000 ------- 0 0.0 1.0 56 56
+ 0.25 0 1 tcp 1000 ------- 0 0.0 1.0 57 57
+ 0.25 0 1 tcp 1000 ------- 0 0.0 1.0 58 58
+ 0.25 0 1 tcp 1000 ------- 0 0.0 1.0 59 59
+ 0.25 0 1 tcp 1000 ------- 0 0.0 1.0 60 60
+ 0.25 0 1 tcp 1000 ------- 0 0.0 1.0 61 61
+ 0.25 0 1 tcp 1000 ------- 0 0.0 1.0 62 62
+ 0.25 0 1 tcp 1000 ------- 0 0.0 1.0 63 63
+ 0.25 0 1 tcp 1000 ------- 0 0.0 1.0 64 64
+ 0.25 0 1 tcp 1000 ------- 0 0.0 1.0 65 65
+ 0.25 0 1 tcp 1000 ------- 0 0.0 1.0 66 66
+ 0.25 0 1 tcp 1000 ------- 0 0.0 1.0 67 67
+ 0.25 0 1 tcp 1000 ------- 0 0.0 1.0 68 68
+ 0.25 0 1 tcp 1000 ------- 0 0.0 1.0 69 69
+ 0.25 0 1 tcp 1000 ------- 0 0.0 1.0 70 70
+ 0.25 0 1 tcp 1000 ------- 0 0.0 1.0 71 71
+ 0.25 0 1 tcp 1000 ------- 0 0.0 1.0 72 72
+ 0.25 0 1 tcp 1000 ------- 0 0.0 1.0 73 73
+ 0.25 0 1 tcp 1000 ------- 0 0.0 1.0 74 74
+ 0.25 0 1 tcp 1000 ------- 0 0.0 1.0 75 75
+ 0.25 0 1 tcp 1000 ------- 0 0.0 1.0 76 76
+ 0.25 0 1 tcp 1000 ------- 0 0.0 1.0 77 77
+ 0.25 0 1 tcp 1000 ------- 0 0.0 1.0 78 78
+ 0.25 0 1 tcp 1000 ------- 0 0.0 1.0 79 79
+ 0.25 0 1 tcp 1000 ------- 0 0.0 1.0 80 80
+ 0.25 0 1 tcp 1000 ------- 0 0.0 1.0 81 81
+ 0.25 0 1 tcp 1000 ------- 0 0.0 1.0 82 82
+ 0.25 0 1 tcp 1000 ------- 0 0.0 1.0 83 83
+ 0.25 0 1 tcp 1000 ------- 0 0.0 1.0 84 84
+ 0.25 0 1 tcp 1000 ------- 0 0.0 1.0 85 85
+ 0.25 0 1 tcp 1000 ------- 0 0.0 1.0 86 86
+ 0.25 0 1 tcp 1000 ------- 0 0.0 1.0 87 87
+ 0.25 0 1 tcp 1000 ------- 0 0.0 1.0 88 88
+ 0.25 0 1 tcp 1000 ------- 0 0.0 1.0 89 89
+ 0.25 0 1 tcp 1000 ------- 0 0.0 1.0 90 90
+ 0.25 0 1 tcp 1000 ------- 0 0.0 1.0 91 91
+ 0.25 0 1 tcp 1000 ------- 0 0.0 1.0 92 92
+ 0.25 0 1 tcp 1000 ------- 0 0.0 1.0 93 93
+ 0.25 0 1 tcp 1000 ------- 0 0.0 1.0 94 94
+ 0.25 0 1 tcp 1000 ------- 0 0.0 1.0 95 95
+ 0.25 0 1 tcp 1000 ------- 0 0.0 1.0 96 96
+ 0.25 0 1 tcp 1000 ------- 0 0.0 1.0 97 97
+ 0.25 0 1 tcp 1000 ------- 0 0.0 1.0 98 98
+ 0.25 0 1 tcp 1000 ------- 0 0.0 1.0 99 99
+ 0.25 0 1 tcp 1000 ------- 0 0.0 1.0 100 100
+ 0.25 0 1 tcp 1000 ------- 0 0.0 1.0 101 101
+ 0.25 0 1 tcp 1000 ------- 0 0.0 1.0 102 102
+ 0.25 0 1 tcp 1000 ------- 0 0.0 1.0 103 103
+ 0.25 0 1 tcp 1000 ------- 0 0.0 1.0 104 104
+ 0.25 0 1 tcp 1000 ------- 0 0.0 1.0 105 105
+ 0.25 0 1 tcp 1000 ------- 0 0.0 1.0 106 106
+ 0.25 0 1 tcp 1000 ------- 0 0.0 1.0 107 107
+ 0.25 0 1 tcp 1000 ------- 0 0.0 1.0 108 108
+ 0.25 0 1 tcp 1000 ------- 0 0.0 1.0 109 109
+ 0.25 0 1 tcp 1000 ------- 0 0.0 1.0 110 110
+ 0.25 0 1 tcp 1000 ------- 0 0.0 1.0 111 111
+ 0.25 0 1 tcp 1000 ------- 0 0.0 1.0 112 112
+ 0.25 0 1 tcp 1000 ------- 0 0.0 1.0 113 113
+ 0.25 0 1 tcp 1000 ------- 0 0.0 1.0 114 114
+ 0.25 0 1 tcp 1000 ------- 0 0.0 1.0 115 115
+ 0.25 0 1 tcp 1000 ------- 0 0.0 1.0 116 116
+ 0.25 0 1 tcp 1000 ------- 0 0.0 1.0 117 117
+ 0.25 0 1 tcp 1000 ------- 0 0.0 1.0 118 118
+ 0.25 0 1 tcp 1000 ------- 0 0.0 1.0 119 119
+ 0.25 0 1 tcp 1000 ------- 0 0.0 1.0 120 120
+ 0.25 0 1 tcp 1000 ------- 0 0.0 1.0 121 121
+ 0.25 0 1 tcp 1000 ------- 0 0.0 1.0 122 122
+ 0.25 0 1 tcp 1000 ------- 0 0.0 1.0 123 123
+ 0.25 0 1 tcp 1000 ------- 0 0.0 1.0 124 124
+ 0.25 0 1 tcp 1000 ------- 0 0.0 1.0 125 125
+ 0.25 0 1 tcp 1000 ------- 0 0.0 1.0 126 126
- 0.25064 0 1 tcp 1000 ------- 0 0.0 1.0 1 1
- 0.251307 0 1 tcp 1000 ------- 0 0.0 1.0 2 2
- 0.251973 0 1 tcp 1000 ------- 0 0.0 1.0 3 3
- 0.25264 0 1 tcp 1000 ------- 0 0.0 1.0 4 4
- 0.253307 0 1 tcp 1000 ------- 0 0.0 1.0 5 5
- 0.253973 0 1 tcp 1000 ------- 0 0.0 1.0 6 6
- 0.25464 0 1 tcp 1000 ------- 0 0.0 1.0 7 7
- 0.255307 0 1 tcp 1000 ------- 0 0.0 1.0 8 8
- 0.255973 0 1 tcp 1000 ------- 0 0.0 1.0 9 9
- 0.25664 0 1 tcp 1000 ------- 0 0.0 1.0 10 10
- 0.257307 0 1 tcp 1000 ------- 0 0.0 1.0 11 11
- 0.257973 0 1 tcp 1000 ------- 0 0.0 1.0 12 12
- 0.25864 0 1 tcp 1000 ------- 0 0.0 1.0 13 13
- 0.259307 0 1 tcp 1000 ------- 0 0.0 1.0 14 14
- 0.259973 0 1 tcp 1000 ------- 0 0.0 1.0 15 15
- 0.26064 0 1 tcp 1000 ------- 0 0.0 1.0 16 16
- 0.261307 0 1 tcp 1000 ------- 0 0.0 1.0 17 17
- 0.261973 0 1 tcp 1000 ------- 0 0.0 1.0 18 18
- 0.26264 0 1 tcp 1000 ------- 0 0.0 1.0 19 19
- 0.263307 0 1 tcp 1000 ------- 0 0.0 1.0 20 20
- 0.263973 0 1 tcp 1000 ------- 0 0.0 1.0 21 21
- 0.26464 0 1 tcp 1000 ------- 0 0.0 1.0 22 22
- 0.265307 0 1 tcp 1000 ------- 0 0.0 1.0 23 23
- 0.265973 0 1 tcp 1000 ------- 0 0.0 1.0 24 24
- 0.26664 0 1 tcp 1000 ------- 0 0.0 1.0 25 25
- 0.267307 0 1 tcp 1000 ------- 0 0.0 1.0 26 26
- 0.267973 0 1 tcp 1000 ------- 0 0.0 1.0 27 27
- 0.26864 0 1 tcp 1000 ------- 0 0.0 1.0 28 28
- 0.269307 0 1 tcp 1000 ------- 0 0.0 1.0 29 29
- 0.269973 0 1 tcp 1000 ------- 0 0.0 1.0 30 30
- 0.27064 0 1 tcp 1000 ------- 0 0.0 1.0 31 31
- 0.271307 0 1 tcp 1000 ------- 0 0.0 1.0 32 32
- 0.271973 0 1 tcp 1000 ------- 0 0.0 1.0 33 33
- 0.27264 0 1 tcp 1000 ------- 0 0.0 1.0 34 34
- 0.273307 0 1 tcp 1000 ------- 0 0.0 1.0 35 35
- 0.273973 0 1 tcp 1000 ------- 0 0.0 1.0 36 36
- 0.27464 0 1 tcp 1000 ------- 0 0.0 1.0 37 37
- 0.275307 0 1 tcp 1000 ------- 0 0.0 1.0 38 38
- 0.275973 0 1 tcp 1000 ------- 0 0.0 1.0 39 39
- 0.27664 0 1 tcp 1000 ------- 0 0.0 1.0 40 40
- 0.277307 0 1 tcp 1000 ------- 0 0.0 1.0 41 41
- 0.277973 0 1 tcp 1000 ------- 0 0.0 1.0 42 42
- 0.27864 0 1 tcp 1000 ------- 0 0.0 1.0 43 43
- 0.279307 0 1 tcp 1000 ------- 0 0.0 1.0 44 44
- 0.279973 0 1 tcp 1000 ------- 0 0.0 1.0 45 45
- 0.28064 0 1 tcp 1000 ------- 0 0.0 1.0 46 46
- 0.281307 0 1 tcp 1000 ------- 0 0.0 1.0 47 47
- 0.281973 0 1 tcp 1000 ------- 0 0.0 1.0 48 48
- 0.28264 0 1 tcp 1000 ------- 0 0.0 1.0 49 49
- 0.283307 0 1 tcp 1000 ------- 0 0.0 1.0 50 50
- 0.283973 0 1 tcp 1000 ------- 0 0.0 1.0 51 51
- 0.28464 0 1 tcp 1000 ------- 0 0.0 1.0 52 52
- 0.285307 0 1 tcp 1000 ------- 0 0.0 1.0 53 53
- 0.285973 0 1 tcp 1000 ------- 0 0.0 1.0 54 54
- 0.28664 0 1 tcp 1000 ------- 0 0.0 1.0 55 55
- 0.287307 0 1 tcp 1000 ------- 0 0.0 1.0 56 56
- 0.287973 0 1 tcp 1000 ------- 0 0.0 1.0 57 57
- 0.28864 0 1 tcp 1000 ------- 0 0.0 1.0 58 58
- 0.289307 0 1 tcp 1000 ------- 0 0.0 1.0 59 59
- 0.289973 0 1 tcp 1000 ------- 0 0.0 1.0 60 60
- 0.29064 0 1 tcp 1000 ------- 0 0.0 1.0 61 61
- 0.291307 0 1 tcp 1000 ------- 0 0.0 1.0 62 62
- 0.291973 0 1 tcp 1000 ------- 0 0.0 1.0 63 63
- 0.29264 0 1 tcp 1000 ------- 0 0.0 1.0 64 64
- 0.293307 0 1 tcp 1000 ------- 0 0.0 1.0 65 65
- 0.293973 0 1 tcp 1000 ------- 0 0.0 1.0 66 66
- 0.29464 0 1 tcp 1000 ------- 0 0.0 1.0 67 67
- 0.295307 0 1 tcp 1000 ------- 0 0.0 1.0 68 68
- 0.295973 0 1 tcp 1000 ------- 0 0.0 1.0 69 69
- 0.29664 0 1 tcp 1000 ------- 0 0.0 1.0 70 70
- 0.297307 0 1 tcp 1000 ------- 0 0.0 1.0 71 71
- 0.297973 0 1 tcp 1000 ------- 0 0.0 1.0 72 72
- 0.29864 0 1 tcp 1000 ------- 0 0.0 1.0 73 73
- 0.299307 0 1 tcp 1000 ------- 0 0.0 1.0 74 74
- 0.299973 0 1 tcp 1000 ------- 0 0.0 1.0 75 75
- 0.30064 0 1 tcp 1000 ------- 0 0.0 1.0 76 76
- 0.301307 0 1 tcp 1000 ------- 0 0.0 1.0 77 77
- 0.301973 0 1 tcp 1000 ------- 0 0.0 1.0 78 78
- 0.30264 0 1 tcp 1000 ------- 0 0.0 1.0 79 79
- 0.303307 0 1 tcp 1000 ------- 0 0.0 1.0 80 80
- 0.303973 0 1 tcp 1000 ------- 0 0.0 1.0 81 81
- 0.30464 0 1 tcp 1000 ------- 0 0.0 1.0 82 82
- 0.305307 0 1 tcp 1000 ------- 0 0.0 1.0 83 83
- 0.305973 0 1 tcp 1000 ------- 0 0.0 1.0 84 84
- 0.30664 0 1 tcp 1000 ------- 0 0.0 1.0 85 85
- 0.307307 0 1 tcp 1000 ------- 0 0.0 1.0 86 86
- 0.307973 0 1 tcp 1000 ------- 0 0.0 1.0 87 87
- 0.30864 0 1 tcp 1000 ------- 0 0.0 1.0 88 88
- 0.309307 0 1 tcp 1000 ------- 0 0.0 1.0 89 89
- 0.309973 0 1 tcp 1000 ------- 0 0.0 1.0 90 90
- 0.31064 0 1 tcp 1000 ------- 0 0.0 1.0 91 91
- 0.311307 0 1 tcp 1000 ------- 0 0.0 1.0 92 92
- 0.311973 0 1 tcp 1000 ------- 0 0.0 1.0 93 93
- 0.31264 0 1 tcp 1000 ------- 0 0.0 1.0 94 94
- 0.313307 0 1 tcp 1000 ------- 0 0.0 1.0 95 95
- 0.313973 0 1 tcp 1000 ------- 0 0.0 1.0 96 96
- 0.31464 0 1 tcp 1000 ------- 0 0.0 1.0 97 97
- 0.315307 0 1 tcp 1000 ------- 0 0.0 1.0 98 98
- 0.315973 0 1 tcp 1000 ------- 0 0.0 1.0 99 99
- 0.31664 0 1 tcp 1000 ------- 0 0.0 1.0 100 100
- 0.317307 0 1 tcp 1000 ------- 0 0.0 1.0 101 101
- 0.317973 0 1 tcp 1000 ------- 0 0.0 1.0 102 102
- 0.31864 0 1 tcp 1000 ------- 0 0.0 1.0 103 103
- 0.319307 0 1 tcp 1000 ------- 0 0.0 1.0 104 104
- 0.319973 0 1 tcp 1000 ------- 0 0.0 1.0 105 105
- 0.32064 0 1 tcp 1000 ------- 0 0.0 1.0 106 106
- 0.321307 0 1 tcp 1000 ------- 0 0.0 1.0 107 107
- 0.321973 0 1 tcp 1000 ------- 0 0.0 1.0 108 108
- 0.32264 0 1 tcp 1000 ------- 0 0.0 1.0 109 109
- 0.323307 0 1 tcp 1000 ------- 0 0.0 1.0 110 110
- 0.323973 0 1 tcp 1000 ------- 0 0.0 1.0 111 111
- 0.32464 0 1 tcp 1000 ------- 0 0.0 1.0 112 112
- 0.325307 0 1 tcp 1000 ------- 0 0.0 1.0 113 113
- 0.325973 0 1 tcp 1000 ------- 0 0.0 1.0 114 114
- 0.32664 0 1 tcp 1000 ------- 0 0.0 1.0 115 115
- 0.327307 0 1 tcp 1000 ------- 0 0.0 1.0 116 116
- 0.327973 0 1 tcp 1000 ------- 0 0.0 1.0 117 117
- 0.32864 0 1 tcp 1000 ------- 0 0.0 1.0 118 118
- 0.329307 0 1 tcp 1000 ------- 0 0.0 1.0 119 119
- 0.329973 0 1 tcp 1000 ------- 0 0.0 1.0 120 120
- 0.33064 0 1 tcp 1000 ------- 0 0.0 1.0 121 121
- 0.331307 0 1 tcp 1000 ------- 0 0.0 1.0 122 122
- 0.331973 0 1 tcp 1000 ------- 0 0.0 1.0 123 123
- 0.33264 0 1 tcp 1000 ------- 0 0.0 1.0 124 124
- 0.333307 0 1 tcp 1000 ------- 0 0.0 1.0 125 125
- 0.333973 0 1 tcp 1000 ------- 0 0.0 1.0 126 126
r 0.45064 0 1 tcp 960 ------- 0 0.0 1.0 0 0
+ 0.45064 1 0 ack 40 ------- 0 1.0 0.0 0 127
- 0.45064 1 0 ack 40 ------- 0 1.0 0.0 0 127
r 0.451307 0 1 tcp 1000 ------- 0 0.0 1.0 1 1
+ 0.451307 1 0 ack 40 ------- 0 1.0 0.0 1 128
- 0.451307 1 0 ack 40 ------- 0 1.0 0.0 1 128
r 0.451973 0 1 tcp 1000 ------- 0 0.0 1.0 2 2
+ 0.451973 1 0 ack 40 ------- 0 1.0 0.0 2 129
- 0.451973 1 0 ack 40 ------- 0 1.0 0.0 2 129
r 0.45264 0 1 tcp 1000 ------- 0 0.0 1.0 3 3
+ 0.45264 1 0 ack 40 ------- 0 1.0 0.0 3 130
- 0.45264 1 0 ack 40 ------- 0 1.0 0.0 3 130
r 0.453307 0 1 tcp 1000 ------- 0 0.0 1.0 4 4
+ 0.453307 1 0 ack 40 ------- 0 1.0 0.0 4 131
- 0.453307 1 0 ack 40 ------- 0 1.0 0.0 4 131
r 0.453973 0 1 tcp 1000 ------- 0 0.0 1.0 5 5
+ 0.453973 1 0 ack 40 ------- 0 1.0 0.0 5 132
- 0.453973 1 0 ack 40 ------- 0 1.0 0.0 5 132
r 0.45464 0 1 tcp 1000 ------- 0 0.0 1.0 6 6
+ 0.45464 1 0 ack 40 ------- 0 1.0 0.0 6 133
- 0.45464 1 0 ack 40 ------- 0 1.0 0.0 6 133
r 0.455307 0 1 tcp 1000 ------- 0 0.0 1.0 7 7
+ 0.455307 1 0 ack 40 ------- 0 1.0 0.0 7 134
- 0.455307 1 0 ack 40 ------- 0 1.0 0.0 7 134
r 0.455973 0 1 tcp 1000 ------- 0 0.0 1.0 8 8
+ 0.455973 1 0 ack 40 ------- 0 1.0 0.0 8 135
- 0.455973 1 0 ack 40 ------- 0 1.0 0.0 8 135
r 0.45664 0 1 tcp 1000 ------- 0 0.0 1.0 9 9
+ 0.45664 1 0 ack 40 ------- 0 1.0 0.0 9 136
- 0.45664 1 0 ack 40 ------- 0 1.0 0.0 9 136
r 0.457307 0 1 tcp 1000 ------- 0 0.0 1.0 10 10
+ 0.457307 1 0 ack 40 ------- 0 1.0 0.0 10 137
- 0.457307 1 0 ack 40 ------- 0 1.0 0.0 10 137
r 0.457973 0 1 tcp 1000 ------- 0 0.0 1.0 11 11
+ 0.457973 1 0 ack 40 ------- 0 1.0 0.0 11 138
- 0.457973 1 0 ack 40 ------- 0 1.0 0.0 11 138
r 0.45864 0 1 tcp 1000 ------- 0 0.0 1.0 12 12
+ 0.45864 1 0 ack 40 ------- 0 1.0 0.0 12 139
- 0.45864 1 0 ack 40 ------- 0 1.0 0.0 12 139
r 0.459307 0 1 tcp 1000 ------- 0 0.0 1.0 13 13
+ 0.459307 1 0 ack 40 ------- 0 1.0 0.0 13 140
- 0.459307 1 0 ack 40 ------- 0 1.0 0.0 13 140
r 0.459973 0 1 tcp 1000 ------- 0 0.0 1.0 14 14
+ 0.459973 1 0 ack 40 ------- 0 1.0 0.0 14 141
- 0.459973 1 0 ack 40 ------- 0 1.0 0.0 14 141
r 0.46064 0 1 tcp 1000 ------- 0 0.0 1.0 15 15
+ 0.46064 1 0 ack 40 ------- 0 1.0 0.0 15 142
- 0.46064 1 0 ack 40 ------- 0 1.0 0.0 15 142
r 0.461307 0 1 tcp 1000 ------- 0 0.0 1.0 16 16
+ 0.461307 1 0 ack 40 ------- 0 1.0 0.0 16 143
- 0.461307 1 0 ack 40 ------- 0 1.0 0.0 16 143
r 0.461973 0 1 tcp 1000 ------- 0 0.0 1.0 17 17
+ 0.461973 1 0 ack 40 ------- 0 1.0 0.0 17 144
- 0.461973 1 0 ack 40 ------- 0 1.0 0.0 17 144
r 0.46264 0 1 tcp 1000 ------- 0 0.0 1.0 18 18
+ 0.46264 1 0 ack 40 ------- 0 1.0 0.0 18 145
- 0.46264 1 0 ack 40 ------- 0 1.0 0.0 18 145
r 0.463307 0 1 tcp 1000 ------- 0 0.0 1.0 19 19
+ 0.463307 1 0 ack 40 ------- 0 1.0 0.0 19 146
- 0.463307 1 0 ack 40 ------- 0 1.0 0.0 19 146
r 0.463973 0 1 tcp 1000 ------- 0 0.0 1.0 20 20
+ 0.463973 1 0 ack 40 ------- 0 1.0 0.0 20 147
- 0.463973 1 0 ack 40 ------- 0 1.0 0.0 20 147
r 0.46464 0 1 tcp 1000 ------- 0 0.0 1.0 21 21
+ 0.46464 1 0 ack 40 ------- 0 1.0 0.0 21 148
- 0.46464 1 0 ack 40 ------- 0 1.0 0.0 21 148
r 0.465307 0 1 tcp 1000 ------- 0 0.0 1.0 22 22
+ 0.465307 1 0 ack 40 ------- 0 1.0 0.0 22 149
- 0.465307 1 0 ack 40 ------- 0 1.0 0.0 22 149
r 0.465973 0 1 tcp 1000 ------- 0 0.0 1.0 23 23
+ 0.465973 1 0 ack 40 ------- 0 1.0 0.0 23 150
- 0.465973 1 0 ack 40 ------- 0 1.0 0.0 23 150
r 0.46664 0 1 tcp 1000 ------- 0 0.0 1.0 24 24
+ 0.46664 1 0 ack 40 ------- 0 1.0 0.0 24 151
- 0.46664 1 0 ack 40 ------- 0 1.0 0.0 24 151
r 0.467307 0 1 tcp 1000 ------- 0 0.0 1.0 25 25
+ 0.467307 1 0 ack 40 ------- 0 1.0 0.0 25 152
- 0.467307 1 0 ack 40 ------- 0 1.0 0.0 25 152
r 0.467973 0 1 tcp 1000 ------- 0 0.0 1.0 26 26
+ 0.467973 1 0 ack 40 ------- 0 1.0 0.0 26 153
- 0.467973 1 0 ack 40 ------- 0 1.0 0.0 26 153
r 0.46864 0 1 tcp 1000 ------- 0 0.0 1.0 27 27
+ 0.46864 1 0 ack 40 ------- 0 1.0 0.0 27 154
- 0.46864 1 0 ack 40 ------- 0 1.0 0.0 27 154
r 0.469307 0 1 tcp 1000 ------- 0 0.0 1.0 28 28
+ 0.469307 1 0 ack 40 ------- 0 1.0 0.0 28 155
- 0.469307 1 0 ack 40 ------- 0 1.0 0.0 28 155
r 0.469973 0 1 tcp 1000 ------- 0 0.0 1.0 29 29
+ 0.469973 1 0 ack 40 ------- 0 1.0 0.0 29 156
- 0.469973 1 0 ack 40 ------- 0 1.0 0.0 29 156
r 0.47064 0 1 tcp 1000 ------- 0 0.0 1.0 30 30
+ 0.47064 1 0 ack 40 ------- 0 1.0 0.0 30 157
- 0.47064 1 0 ack 40 ------- 0 1.0 0.0 30 157
r 0.471307 0 1 tcp 1000 ------- 0 0.0 1.0 31 31
+ 0.471307 1 0 ack 40 ------- 0 1.0 0.0 31 158
- 0.471307 1 0 ack 40 ------- 0 1.0 0.0 31 158
r 0.471973 0 1 tcp 1000 ------- 0 0.0 1.0 32 32
+ 0.471973 1 0 ack 40 ------- 0 1.0 0.0 32 159
- 0.471973 1 0 ack 40 ------- 0 1.0 0.0 32 159
r 0.47264 0 1 tcp 1000 ------- 0 0.0 1.0 33 33
+ 0.47264 1 0 ack 40 ------- 0 1.0 0.0 33 160
- 0.47264 1 0 ack 40 ------- 0 1.0 0.0 33 160
r 0.473307 0 1 tcp 1000 ------- 0 0.0 1.0 34 34
+ 0.473307 1 0 ack 40 ------- 0 1.0 0.0 34 161
- 0.473307 1 0 ack 40 ------- 0 1.0 0.0 34 161
r 0.473973 0 1 tcp 1000 ------- 0 0.0 1.0 35 35
+ 0.473973 1 0 ack 40 ------- 0 1.0 0.0 35 162
- 0.473973 1 0 ack 40 ------- 0 1.0 0.0 35 162
r 0.47464 0 1 tcp 1000 ------- 0 0.0 1.0 36 36
+ 0.47464 1 0 ack 40 ------- 0 1.0 0.0 36 163
- 0.47464 1 0 ack 40 ------- 0 1.0 0.0 36 163
r 0.475307 0 1 tcp 1000 ------- 0 0.0 1.0 37 37
+ 0.475307 1 0 ack 40 ------- 0 1.0 0.0 37 164
- 0.475307 1 0 ack 40 ------- 0 1.0 0.0 37 164
r 0.475973 0 1 tcp 1000 ------- 0 0.0 1.0 38 38
+ 0.475973 1 0 ack 40 ------- 0 1.0 0.0 38 165
- 0.475973 1 0 ack 40 ------- 0 1.0 0.0 38 165
r 0.47664 0 1 tcp 1000 ------- 0 0.0 1.0 39 39
+ 0.47664 1 0 ack 40 ------- 0 1.0 0.0 39 166
- 0.47664 1 0 ack 40 ------- 0 1.0 0.0 39 166
r 0.477307 0 1 tcp 1000 ------- 0 0.0 1.0 40 40
+ 0.477307 1 0 ack 40 ------- 0 1.0 0.0 40 167
- 0.477307 1 0 ack 40 ------- 0 1.0 0.0 40 167
r 0.477973 0 1 tcp 1000 ------- 0 0.0 1.0 41 41
+ 0.477973 1 0 ack 40 ------- 0 1.0 0.0 41 168
- 0.477973 1 0 ack 40 ------- 0 1.0 0.0 41 168
r 0.47864 0 1 tcp 1000 ------- 0 0.0 1.0 42 42
+ 0.47864 1 0 ack 40 ------- 0 1.0 0.0 42 169
- 0.47864 1 0 ack 40 ------- 0 1.0 0.0 42 169
r 0.479307 0 1 tcp 1000 ------- 0 0.0 1.0 43 43
+ 0.479307 1 0 ack 40 ------- 0 1.0 0.0 43 170
- 0.479307 1 0 ack 40 ------- 0 1.0 0.0 43 170
r 0.479973 0 1 tcp 1000 ------- 0 0.0 1.0 44 44
+ 0.479973 1 0 ack 40 ------- 0 1.0 0.0 44 171
- 0.479973 1 0 ack 40 ------- 0 1.0 0.0 44 171
r 0.48064 0 1 tcp 1000 ------- 0 0.0 1.0 45 45
+ 0.48064 1 0 ack 40 ------- 0 1.0 0.0 45 172
- 0.48064 1 0 ack 40 ------- 0 1.0 0.0 45 172
r 0.481307 0 1 tcp 1000 ------- 0 0.0 1.0 46 46
+ 0.481307 1 0 ack 40 ------- 0 1.0 0.0 46 173
- 0.481307 1 0 ack 40 ------- 0 1.0 0.0 46 173
r 0.481973 0 1 tcp 1000 ------- 0 0.0 1.0 47 47
+ 0.481973 1 0 ack 40 ------- 0 1.0 0.0 47 174
- 0.481973 1 0 ack 40 ------- 0 1.0 0.0 47 174
r 0.48264 0 1 tcp 1000 ------- 0 0.0 1.0 48 48
+ 0.48264 1 0 ack 40 ------- 0 1.0 0.0 48 175
- 0.48264 1 0 ack 40 ------- 0 1.0 0.0 48 175
r 0.483307 0 1 tcp 1000 ------- 0 0.0 1.0 49 49
+ 0.483307 1 0 ack 40 ------- 0 1.0 0.0 49 176
- 0.483307 1 0 ack 40 ------- 0 1.0 0.0 49 176
r 0.483973 0 1 tcp 1000 ------- 0 0.0 1.0 50 50
+ 0.483973 1 0 ack 40 ------- 0 1.0 0.0 50 177
- 0.483973 1 0 ack 40 ------- 0 1.0 0.0 50 177
r 0.48464 0 1 tcp 1000 ------- 0 0.0 1.0 51 51
+ 0.48464 1 0 ack 40 ------- 0 1.0 0.0 51 178
- 0.48464 1 0 ack 40 ------- 0 1.0 0.0 51 178
r 0.485307 0 1 tcp 1000 ------- 0 0.0 1.0 52 52
+ 0.485307 1 0 ack 40 ------- 0 1.0 0.0 52 179
- 0.485307 1 0 ack 40 ------- 0 1.0 0.0 52 179
r 0.485973 0 1 tcp 1000 ------- 0 0.0 1.0 53 53
+ 0.485973 1 0 ack 40 ------- 0 1.0 0.0 53 180
- 0.485973 1 0 ack 40 ------- 0 1.0 0.0 53 180
r 0.48664 0 1 tcp 1000 ------- 0 0.0 1.0 54 54
+ 0.48664 1 0 ack 40 ------- 0 1.0 0.0 54 181
- 0.48664 1 0 ack 40 ------- 0 1.0 0.0 54 181
r 0.487307 0 1 tcp 1000 ------- 0 0.0 1.0 55 55
+ 0.487307 1 0 ack 40 ------- 0 1.0 0.0 55 182
- 0.487307 1 0 ack 40 ------- 0 1.0 0.0 55 182
r 0.487973 0 1 tcp 1000 ------- 0 0.0 1.0 56 56
+ 0.487973 1 0 ack 40 ------- 0 1.0 0.0 56 183
- 0.487973 1 0 ack 40 ------- 0 1.0 0.0 56 183
r 0.48864 0 1 tcp 1000 ------- 0 0.0 1.0 57 57
+ 0.48864 1 0 ack 40 ------- 0 1.0 0.0 57 184
- 0.48864 1 0 ack 40 ------- 0 1.0 0.0 57 184
r 0.489307 0 1 tcp 1000 ------- 0 0.0 1.0 58 58
+ 0.489307 1 0 ack 40 ------- 0 1.0 0.0 58 185
- 0.489307 1 0 ack 40 ------- 0 1.0 0.0 58 185
r 0.489973 0 1 tcp 1000 ------- 0 0.0 1.0 59 59
+ 0.489973 1 0 ack 40 ------- 0 1.0 0.0 59 186
- 0.489973 1 0 ack 40 ------- 0 1.0 0.0 59 186
r 0.49064 0 1 tcp 1000 ------- 0 0.0 1.0 60 60
+ 0.49064 1 0 ack 40 ------- 0 1.0 0.0 60 187
- 0.49064 1 0 ack 40 ------- 0 1.0 0.0 60 187
r 0.491307 0 1 tcp 1000 ------- 0 0.0 1.0 61 61
+ 0.491307 1 0 ack 40 ------- 0 1.0 0.0 61 188
- 0.491307 1 0 ack 40 ------- 0 1.0 0.0 61 188
r 0.491973 0 1 tcp 1000 ------- 0 0.0 1.0 62 62
+ 0.491973 1 0 ack 40 ------- 0 1.0 0.0 62 189
- 0.491973 1 0 ack 40 ------- 0 1.0 0.0 62 189
r 0.49264 0 1 tcp 1000 ------- 0 0.0 1.0 63 63
+ 0.49264 1 0 ack 40 ------- 0 1.0 0.0 63 190
- 0.49264 1 0 ack 40 ------- 0 1.0 0.0 63 190
r 0.493307 0 1 tcp 1000 ------- 0 0.0 1.0 64 64
+ 0.493307 1 0 ack 40 ------- 0 1.0 0.0 64 191
- 0.493307 1 0 ack 40 ------- 0 1.0 0.0 64 191
r 0.493973 0 1 tcp 1000 ------- 0 0.0 1.0 65 65
+ 0.493973 1 0 ack 40 ------- 0 1.0 0.0 65 192
- 0.493973 1 0 ack 40 ------- 0 1.0 0.0 65 192
r 0.49464 0 1 tcp 1000 ------- 0 0.0 1.0 66 66
+ 0.49464 1 0 ack 40 ------- 0 1.0 0.0 66 193
- 0.49464 1 0 ack 40 ------- 0 1.0 0.0 66 193
r 0.495307 0 1 tcp 1000 ------- 0 0.0 1.0 67 67
+ 0.495307 1 0 ack 40 ------- 0 1.0 0.0 67 194
- 0.495307 1 0 ack 40 ------- 0 1.0 0.0 67 194
r 0.495973 0 1 tcp 1000 ------- 0 0.0 1.0 68 68
+ 0.495973 1 0 ack 40 ------- 0 1.0 0.0 68 195
- 0.495973 1 0 ack 40 ------- 0 1.0 0.0 68 195
r 0.49664 0 1 tcp 1000 ------- 0 0.0 1.0 69 69
+ 0.49664 1 0 ack 40 ------- 0 1.0 0.0 69 196
- 0.49664 1 0 ack 40 ------- 0 1.0 0.0 69 196
r 0.497307 0 1 tcp 1000 ------- 0 0.0 1.0 70 70
+ 0.497307 1 0 ack 40 ------- 0 1.0 0.0 70 197
- 0.497307 1 0 ack 40 ------- 0 1.0 0.0 70 197
r 0.497973 0 1 tcp 1000 ------- 0 0.0 1.0 71 71
+ 0.497973 1 0 ack 40 ------- 0 1.0 0.0 71 198
- 0.497973 1 0 ack 40 ------- 0 1.0 0.0 71 198
r 0.49864 0 1 tcp 1000 ------- 0 0.0 1.0 72 72
+ 0.49864 1 0 ack 40 ------- 0 1.0 0.0 72 199
- 0.49864 1 0 ack 40 ------- 0 1.0 0.0 72 199
r 0.499307 0 1 tcp 1000 ------- 0 0.0 1.0 73 73
+ 0.499307 1 0 ack 40 ------- 0 1.0 0.0 73 200
- 0.499307 1 0 ack 40 ------- 0 1.0 0.0 73 200
r 0.499973 0 1 tcp 1000 ------- 0 0.0 1.0 74 74
+ 0.499973 1 0 ack 40 ------- 0 1.0 0.0 74 201
- 0.499973 1 0 ack 40 ------- 0 1.0 0.0 74 201
r 0.50064 0 1 tcp 1000 ------- 0 0.0 1.0 75 75
+ 0.50064 1 0 ack 40 ------- 0 1.0 0.0 75 202
- 0.50064 1 0 ack 40 ------- 0 1.0 0.0 75 202
r 0.501307 0 1 tcp 1000 ------- 0 0.0 1.0 76 76
+ 0.501307 1 0 ack 40 ------- 0 1.0 0.0 76 203
- 0.501307 1 0 ack 40 ------- 0 1.0 0.0 76 203
r 0.501973 0 1 tcp 1000 ------- 0 0.0 1.0 77 77
+ 0.501973 1 0 ack 40 ------- 0 1.0 0.0 77 204
- 0.501973 1 0 ack 40 ------- 0 1.0 0.0 77 204
r 0.50264 0 1 tcp 1000 ------- 0 0.0 1.0 78 78
+ 0.50264 1 0 ack 40 ------- 0 1.0 0.0 78 205
- 0.50264 1 0 ack 40 ------- 0 1.0 0.0 78 205
r 0.503307 0 1 tcp 1000 ------- 0 0.0 1.0 79 79
+ 0.503307 1 0 ack 40 ------- 0 1.0 0.0 79 206
- 0.503307 1 0 ack 40 ------- 0 1.0 0.0 79 206
r 0.503973 0 1 tcp 1000 ------- 0 0.0 1.0 80 80
+ 0.503973 1 0 ack 40 ------- 0 1.0 0.0 80 207
- 0.503973 1 0 ack 40 ------- 0 1.0 0.0 80 207
r 0.50464 0 1 tcp 1000 ------- 0 0.0 1.0 81 81
+ 0.50464 1 0 ack 40 ------- 0 1.0 0.0 81 208
- 0.50464 1 0 ack 40 ------- 0 1.0 0.0 81 208
r 0.505307 0 1 tcp 1000 ------- 0 0.0 1.0 82 82
+ 0.505307 1 0 ack 40 ------- 0 1.0 0.0 82 209
- 0.505307 1 0 ack 40 ------- 0 1.0 0.0 82 209
r 0.505973 0 1 tcp 1000 ------- 0 0.0 1.0 83 83
+ 0.505973 1 0 ack 40 ------- 0 1.0 0.0 83 210
- 0.505973 1 0 ack 40 ------- 0 1.0 0.0 83 210
r 0.50664 0 1 tcp 1000 ------- 0 0.0 1.0 84 84
+ 0.50664 1 0 ack 40 ------- 0 1.0 0.0 84 211
- 0.50664 1 0 ack 40 ------- 0 1.0 0.0 84 211
r 0.507307 0 1 tcp 1000 ------- 0 0.0 1.0 85 85
+ 0.507307 1 0 ack 40 ------- 0 1.0 0.0 85 212
- 0.507307 1 0 ack 40 ------- 0 1.0 0.0 85 212
r 0.507973 0 1 tcp 1000 ------- 0 0.0 1.0 86 86
+ 0.507973 1 0 ack 40 ------- 0 1.0 0.0 86 213
- 0.507973 1 0 ack 40 ------- 0 1.0 0.0 86 213
r 0.50864 0 1 tcp 1000 ------- 0 0.0 1.0 87 87
+ 0.50864 1 0 ack 40 ------- 0 1.0 0.0 87 214
- 0.50864 1 0 ack 40 ------- 0 1.0 0.0 87 214
r 0.509307 0 1 tcp 1000 ------- 0 0.0 1.0 88 88
+ 0.509307 1 0 ack 40 ------- 0 1.0 0.0 88 215
- 0.509307 1 0 ack 40 ------- 0 1.0 0.0 88 215
r 0.509973 0 1 tcp 1000 ------- 0 0.0 1.0 89 89
+ 0.509973 1 0 ack 40 ------- 0 1.0 0.0 89 216
- 0.509973 1 0 ack 40 ------- 0 1.0 0.0 89 216
r 0.51064 0 1 tcp 1000 ------- 0 0.0 1.0 90 90
+ 0.51064 1 0 ack 40 ------- 0 1.0 0.0 90 217
- 0.51064 1 0 ack 40 ------- 0 1.0 0.0 90 217
r 0.511307 0 1 tcp 1000 ------- 0 0.0 1.0 91 91
+ 0.511307 1 0 ack 40 ------- 0 1.0 0.0 91 218
- 0.511307 1 0 ack 40 ------- 0 1.0 0.0 91 218
r 0.511973 0 1 tcp 1000 ------- 0 0.0 1.0 92 92
+ 0.511973 1 0 ack 40 ------- 0 1.0 0.0 92 219
- 0.511973 1 0 ack 40 ------- 0 1.0 0.0 92 219
r 0.51264 0 1 tcp 1000 ------- 0 0.0 1.0 93 93
+ 0.51264 1 0 ack 40 ------- 0 1.0 0.0 93 220
- 0.51264 1 0 ack 40 ------- 0 1.0 0.0 93 220
r 0.513307 0 1 tcp 1000 ------- 0 0.0 1.0 94 94
+ 0.513307 1 0 ack 40 ------- 0 1.0 0.0 94 221
- 0.513307 1 0 ack 40 ------- 0 1.0 0.0 94 221
r 0.513973 0 1 tcp 1000 ------- 0 0.0 1.0 95 95
+ 0.513973 1 0 ack 40 ------- 0 1.0 0.0 95 222
- 0.513973 1 0 ack 40 ------- 0 1.0 0.0 95 222
r 0.51464 0 1 tcp 1000 ------- 0 0.0 1.0 96 96
+ 0.51464 1 0 ack 40 ------- 0 1.0 0.0 96 223
- 0.51464 1 0 ack 40 ------- 0 1.0 0.0 96 223
r 0.515307 0 1 tcp 1000 ------- 0 0.0 1.0 97 97
+ 0.515307 1 0 ack 40 ------- 0 1.0 0.0 97 224
- 0.515307 1 0 ack 40 ------- 0 1.0 0.0 97 224
r 0.515973 0 1 tcp 1000 ------- 0 0.0 1.0 98 98
+ 0.515973 1 0 ack 40 ------- 0 1.0 0.0 98 225
- 0.515973 1 0 ack 40 ------- 0 1.0 0.0 98 225
r 0.51664 0 1 tcp 1000 ------- 0 0.0 1.0 99 99
+ 0.51664 1 0 ack 40 ------- 0 1.0 0.0 99 226
- 0.51664 1 0 ack 40 ------- 0 1.0 0.0 99 226
r 0.517307 0 1 tcp 1000 ------- 0 0.0 1.0 100 100
+ 0.517307 1 0 ack 40 ------- 0 1.0 0.0 100 227
- 0.517307 1 0 ack 40 ------- 0 1.0 0.0 100 227
r 0.517973 0 1 tcp 1000 ------- 0 0.0 1.0 101 101
+ 0.517973 1 0 ack 40 ------- 0 1.0 0.0 101 228
- 0.517973 1 0 ack 40 ------- 0 1.0 0.0 101 228
r 0.51864 0 1 tcp 1000 ------- 0 0.0 1.0 102 102
+ 0.51864 1 0 ack 40 ------- 0 1.0 0.0 102 229
- 0.51864 1 0 ack 40 ------- 0 1.0 0.0 102 229
r 0.519307 0 1 tcp 1000 ------- 0 0.0 1.0 103 103
+ 0.519307 1 0 ack 40 ------- 0 1.0 0.0 103 230
- 0.519307 1 0 ack 40 ------- 0 1.0 0.0 103 230
r 0.519973 0 1 tcp 1000 ------- 0 0.0 1.0 104 104
+ 0.519973 1 0 ack 40 ------- 0 1.0 0.0 104 231
- 0.519973 1 0 ack 40 ------- 0 1.0 0.0 104 231
r 0.52064 0 1 tcp 1000 ------- 0 0.0 1.0 105 105
+ 0.52064 1 0 ack 40 ------- 0 1.0 0.0 105 232
- 0.52064 1 0 ack 40 ------- 0 1.0 0.0 105 232
r 0.521307 0 1 tcp 1000 ------- 0 0.0 1.0 106 106
+ 0.521307 1 0 ack 40 ------- 0 1.0 0.0 106 233
- 0.521307 1 0 ack 40 ------- 0 1.0 0.0 106 233
r 0.521973 0 1 tcp 1000 ------- 0 0.0 1.0 107 107
+ 0.521973 1 0 ack 40 ------- 0 1.0 0.0 107 234
- 0.521973 1 0 ack 40 ------- 0 1.0 0.0 107 234
r 0.52264 0 1 tcp 1000 ------- 0 0.0 1.0 108 108
+ 0.52264 1 0 ack 40 ------- 0 1.0 0.0 108 235
- 0.52264 1 0 ack 40 ------- 0 1.0 0.0 108 235
r 0.523307 0 1 tcp 1000 ------- 0 0.0 1.0 109 109
+ 0.523307 1 0 ack 40 ------- 0 1.0 0.0 109 236
- 0.523307 1 0 ack 40 ------- 0 1.0 0.0 109 236
r 0.523973 0 1 tcp 1000 ------- 0 0.0 1.0 110 110
+ 0.523973 1 0 ack 40 ------- 0 1.0 0.0 110 237
- 0.523973 1 0 ack 40 ------- 0 1.0 0.0 110 237
r 0.52464 0 1 tcp 1000 ------- 0 0.0 1.0 111 111
+ 0.52464 1 0 ack 40 ------- 0 1.0 0.0 111 238
- 0.52464 1 0 ack 40 ------- 0 1.0 0.0 111 238
r 0.525307 0 1 tcp 1000 ------- 0 0.0 1.0 112 112
+ 0.525307 1 0 ack 40 ------- 0 1.0 0.0 112 239
- 0.525307 1 0 ack 40 ------- 0 1.0 0.0 112 239
r 0.525973 0 1 tcp 1000 ------- 0 0.0 1.0 113 113
+ 0.525973 1 0 ack 40 ------- 0 1.0 0.0 113 240
- 0.525973 1 0 ack 40 ------- 0 1.0 0.0 113 240
r 0.52664 0 1 tcp 1000 ------- 0 0.0 1.0 114 114
+ 0.52664 1 0 ack 40 ------- 0 1.0 0.0 114 241
- 0.52664 1 0 ack 40 ------- 0 1.0 0.0 114 241
r 0.527307 0 1 tcp 1000 ------- 0 0.0 1.0 115 115
+ 0.527307 1 0 ack 40 ------- 0 1.0 0.0 115 242
- 0.527307 1 0 ack 40 ------- 0 1.0 0.0 115 242
r 0.527973 0 1 tcp 1000 ------- 0 0.0 1.0 116 116
+ 0.527973 1 0 ack 40 ------- 0 1.0 0.0 116 243
- 0.527973 1 0 ack 40 ------- 0 1.0 0.0 116 243
r 0.52864 0 1 tcp 1000 ------- 0 0.0 1.0 117 117
+ 0.52864 1 0 ack 40 ------- 0 1.0 0.0 117 244
- 0.52864 1 0 ack 40 ------- 0 1.0 0.0 117 244
r 0.529307 0 1 tcp 1000 ------- 0 0.0 1.0 118 118
+ 0.529307 1 0 ack 40 ------- 0 1.0 0.0 118 245
- 0.529307 1 0 ack 40 ------- 0 1.0 0.0 118 245
r 0.529973 0 1 tcp 1000 ------- 0 0.0 1.0 119 119
+ 0.529973 1 0 ack 40 ------- 0 1.0 0.0 119 246
- 0.529973 1 0 ack 40 ------- 0 1.0 0.0 119 246
r 0.53064 0 1 tcp 1000 ------- 0 0.0 1.0 120 120
+ 0.53064 1 0 ack 40 ------- 0 1.0 0.0 120 247
- 0.53064 1 0 ack 40 ------- 0 1.0 0.0 120 247
r 0.531307 0 1 tcp 1000 ------- 0 0.0 1.0 121 121
+ 0.531307 1 0 ack 40 ------- 0 1.0 0.0 121 248
- 0.531307 1 0 ack 40 ------- 0 1.0 0.0 121 248
r 0.531973 0 1 tcp 1000 ------- 0 0.0 1.0 122 122
+ 0.531973 1 0 ack 40 ------- 0 1.0 0.0 122 249
- 0.531973 1 0 ack 40 ------- 0 1.0 0.0 122 249
r 0.53264 0 1 tcp 1000 ------- 0 0.0 1.0 123 123
+ 0.53264 1 0 ack 40 ------- 0 1.0 0.0 123 250
- 0.53264 1 0 ack 40 ------- 0 1.0 0.0 123 250
r 0.533307 0 1 tcp 1000 ------- 0 0.0 1.0 124 124
+ 0.533307 1 0 ack 40 ------- 0 1.0 0.0 124 251