s 0.250000000 _0_ AGT  --- 0 cbr 1000 [0 0 0 0] ------- [0:0 19:0 32 0] [0] 0 0
r 0.250000000 _0_ RTR  --- 0 cbr 1000 [0 0 0 0] ------- [0:0 19:0 32 0] [0] 0 0
s 0.250000000 _0_ RTR  --- 0 AODV 48 [0 0 0 0] ------- [0:255 -1:255 30 0] [0x2 1 1 [19 0] [0 4]] (REQUEST)
r 0.250900000 _6_ RTR  --- 0 AODV 48 [0 ffffffff 0 800] ------- [0:255 -1:255 30 0] [0x2 1 1 [19 0] [0 4]] (REQUEST)
r 0.250900067 _7_ RTR  --- 0 AODV 48 [0 ffffffff 0 800] ------- [0:255 -1:255 30 0] [0x2 1 1 [19 0] [0 4]] (REQUEST)
r 0.250900067 _5_ RTR  --- 0 AODV 48 [0 ffffffff 0 800] ------- [0:255 -1:255 30 0] [0x2 1 1 [19 0] [0 4]] (REQUEST)
r 0.250900067 _1_ RTR  --- 0 AODV 48 [0 ffffffff 0 800] ------- [0:255 -1:255 30 0] [0x2 1 1 [19 0] [0 4]] (REQUEST)
r 0.250900133 _8_ RTR  --- 0 AODV 48 [0 ffffffff 0 800] ------- [0:255 -1:255 30 0] [0x2 1 1 [19 0] [0 4]] (REQUEST)
r 0.250900133 _4_ RTR  --- 0 AODV 48 [0 ffffffff 0 800] ------- [0:255 -1:255 30 0] [0x2 1 1 [19 0] [0 4]] (REQUEST)
r 0.250900133 _2_ RTR  --- 0 AODV 48 [0 ffffffff 0 800] ------- [0:255 -1:255 30 0] [0x2 1 1 [19 0] [0 4]] (REQUEST)
r 0.250900200 _9_ RTR  --- 0 AODV 48 [0 ffffffff 0 800] ------- [0:255 -1:255 30 0] [0x2 1 1 [19 0] [0 4]] (REQUEST)
r 0.250900200 _3_ RTR  --- 0 AODV 48 [0 ffffffff 0 800] ------- [0:255 -1:255 30 0] [0x2 1 1 [19 0] [0 4]] (REQUEST)
r 0.250900267 _10_ RTR  --- 0 AODV 48 [0 ffffffff 0 800] ------- [0:255 -1:255 30 0] [0x2 1 1 [19 0] [0 4]] (REQUEST)
r 0.250900333 _11_ RTR  --- 0 AODV 48 [0 ffffffff 0 800] ------- [0:255 -1:255 30 0] [0x2 1 1 [19 0] [0 4]] (REQUEST)
r 0.250900400 _12_ RTR  --- 0 AODV 48 [0 ffffffff 0 800] ------- [0:255 -1:255 30 0] [0x2 1 1 [19 0] [0 4]] (REQUEST)
r 0.250900467 _19_ RTR  --- 0 AODV 48 [0 ffffffff 0 800] ------- [0:255 -1:255 30 0] [0x2 1 1 [19 0] [0 4]] (REQUEST)
r 0.250900467 _13_ RTR  --- 0 AODV 48 [0 ffffffff 0 800] ------- [0:255 -1:255 30 0] [0x2 1 1 [19 0] [0 4]] (REQUEST)
s 0.250900467 _19_ RTR  --- 0 AODV 44 [0 0 0 0] ------- [19:255 0:255 30 0] [0x4 1 [19 2] 10.000000] (REPLY)
r 0.250900533 _18_ RTR  --- 0 AODV 48 [0 ffffffff 0 800] ------- [0:255 -1:255 30 0] [0x2 1 1 [19 0] [0 4]] (REQUEST)
r 0.250900533 _14_ RTR  --- 0 AODV 48 [0 ffffffff 0 800] ------- [0:255 -1:255 30 0] [0x2 1 1 [19 0] [0 4]] (REQUEST)
r 0.250900600 _17_ RTR  --- 0 AODV 48 [0 ffffffff 0 800] ------- [0:255 -1:255 30 0] [0x2 1 1 [19 0] [0 4]] (REQUEST)
r 0.250900600 _15_ RTR  --- 0 AODV 48 [0 ffffffff 0 800] ------- [0:255 -1:255 30 0] [0x2 1 1 [19 0] [0 4]] (REQUEST)
r 0.250900667 _16_ RTR  --- 0 AODV 48 [0 ffffffff 0 800] ------- [0:255 -1:255 30 0] [0x2 1 1 [19 0] [0 4]] (REQUEST)
s 0.251042113 _7_ RTR  --- 0 AODV 48 [0 ffffffff 0 800] ------- [7:255 -1:255 29 0] [0x2 2 1 [19 0] [0 4]] (REQUEST)
s 0.251328412 _13_ RTR  --- 0 AODV 48 [0 ffffffff 0 800] ------- [13:255 -1:255 29 0] [0x2 2 1 [19 0] [0 4]] (REQUEST)
s 0.251781293 _5_ RTR  --- 0 AODV 48 [0 ffffffff 0 800] ------- [5:255 -1:255 29 0] [0x2 2 1 [19 0] [0 4]] (REQUEST)
s 0.252038616 _14_ RTR  --- 0 AODV 48 [0 ffffffff 0 800] ------- [14:255 -1:255 29 0] [0x2 2 1 [19 0] [0 4]] (REQUEST)
s 0.252541854 _12_ RTR  --- 0 AODV 48 [0 ffffffff 0 800] ------- [12:255 -1:255 29 0] [0x2 2 1 [19 0] [0 4]] (REQUEST)
s 0.252648719 _16_ RTR  --- 0 AODV 48 [0 ffffffff 0 800] ------- [16:255 -1:255 29 0] [0x2 2 1 [19 0] [0 4]] (REQUEST)
r 0.252681293 _1_ RTR  --- 0 AODV 48 [0 ffffffff 5 800] ------- [5:255 -1:255 29 0] [0x2 2 1 [19 0] [0 4]] (REQUEST)
r 0.252681360 _6_ RTR  --- 0 AODV 48 [0 ffffffff 5 800] ------- [5:255 -1:255 29 0] [0x2 2 1 [19 0] [0 4]] (REQUEST)
r 0.252681360 _4_ RTR  --- 0 AODV 48 [0 ffffffff 5 800] ------- [5:255 -1:255 29 0] [0x2 2 1 [19 0] [0 4]] (REQUEST)
r 0.252681360 _2_ RTR  --- 0 AODV 48 [0 ffffffff 5 800] ------- [5:255 -1:255 29 0] [0x2 2 1 [19 0] [0 4]] (REQUEST)
r 0.252681360 _0_ RTR  --- 0 AODV 48 [0 ffffffff 5 800] ------- [5:255 -1:255 29 0] [0x2 2 1 [19 0] [0 4]] (REQUEST)
r 0.252681427 _7_ RTR  --- 0 AODV 48 [0 ffffffff 5 800] ------- [5:255 -1:255 29 0] [0x2 2 1 [19 0] [0 4]] (REQUEST)
r 0.252681427 _3_ RTR  --- 0 AODV 48 [0 ffffffff 5 800] ------- [5:255 -1:255 29 0] [0x2 2 1 [19 0] [0 4]] (REQUEST)
r 0.252681493 _8_ RTR  --- 0 AODV 48 [0 ffffffff 5 800] ------- [5:255 -1:255 29 0] [0x2 2 1 [19 0] [0 4]] (REQUEST)
r 0.252681560 _9_ RTR  --- 0 AODV 48 [0 ffffffff 5 800] ------- [5:255 -1:255 29 0] [0x2 2 1 [19 0] [0 4]] (REQUEST)
r 0.252681627 _10_ RTR  --- 0 AODV 48 [0 ffffffff 5 800] ------- [5:255 -1:255 29 0] [0x2 2 1 [19 0] [0 4]] (REQUEST)
r 0.252681693 _11_ RTR  --- 0 AODV 48 [0 ffffffff 5 800] ------- [5:255 -1:255 29 0] [0x2 2 1 [19 0] [0 4]] (REQUEST)
r 0.252681760 _12_ RTR  --- 0 AODV 48 [0 ffffffff 5 800] ------- [5:255 -1:255 29 0] [0x2 2 1 [19 0] [0 4]] (REQUEST)
r 0.252681827 _19_ RTR  --- 0 AODV 48 [0 ffffffff 5 800] ------- [5:255 -1:255 29 0] [0x2 2 1 [19 0] [0 4]] (REQUEST)
r 0.252681827 _13_ RTR  --- 0 AODV 48 [0 ffffffff 5 800] ------- [5:255 -1:255 29 0] [0x2 2 1 [19 0] [0 4]] (REQUEST)
r 0.252681893 _18_ RTR  --- 0 AODV 48 [0 ffffffff 5 800] ------- [5:255 -1:255 29 0] [0x2 2 1 [19 0] [0 4]] (REQUEST)
r 0.252681893 _14_ RTR  --- 0 AODV 48 [0 ffffffff 5 800] ------- [5:255 -1:255 29 0] [0x2 2 1 [19 0] [0 4]] (REQUEST)
r 0.252681960 _17_ RTR  --- 0 AODV 48 [0 ffffffff 5 800] ------- [5:255 -1:255 29 0] [0x2 2 1 [19 0] [0 4]] (REQUEST)
r 0.252681960 _15_ RTR  --- 0 AODV 48 [0 ffffffff 5 800] ------- [5:255 -1:255 29 0] [0x2 2 1 [19 0] [0 4]] (REQUEST)
r 0.252682027 _16_ RTR  --- 0 AODV 48 [0 ffffffff 5 800] ------- [5:255 -1:255 29 0] [0x2 2 1 [19 0] [0 4]] (REQUEST)
s 0.253246218 _9_ RTR  --- 0 AODV 48 [0 ffffffff 0 800] ------- [9:255 -1:255 29 0] [0x2 2 1 [19 0] [0 4]] (REQUEST)
r 0.253548786 _17_ RTR  --- 0 AODV 48 [0 ffffffff 10 800] ------- [16:255 -1:255 29 0] [0x2 2 1 [19 0] [0 4]] (REQUEST)
r 0.253548786 _15_ RTR  --- 0 AODV 48 [0 ffffffff 10 800] ------- [16:255 -1:255 29 0] [0x2 2 1 [19 0] [0 4]] (REQUEST)
r 0.253548853 _18_ RTR  --- 0 AODV 48 [0 ffffffff 10 800] ------- [16:255 -1:255 29 0] [0x2 2 1 [19 0] [0 4]] (REQUEST)
r 0.253548853 _14_ RTR  --- 0 AODV 48 [0 ffffffff 10 800] ------- [16:255 -1:255 29 0] [0x2 2 1 [19 0] [0 4]] (REQUEST)
r 0.253548919 _19_ RTR  --- 0 AODV 48 [0 ffffffff 10 800] ------- [16:255 -1:255 29 0] [0x2 2 1 [19 0] [0 4]] (REQUEST)
r 0.253548919 _13_ RTR  --- 0 AODV 48 [0 ffffffff 10 800] ------- [16:255 -1:255 29 0] [0x2 2 1 [19 0] [0 4]] (REQUEST)
r 0.253548986 _12_ RTR  --- 0 AODV 48 [0 ffffffff 10 800] ------- [16:255 -1:255 29 0] [0x2 2 1 [19 0] [0 4]] (REQUEST)
r 0.253549053 _11_ RTR  --- 0 AODV 48 [0 ffffffff 10 800] ------- [16:255 -1:255 29 0] [0x2 2 1 [19 0] [0 4]] (REQUEST)
r 0.253549119 _10_ RTR  --- 0 AODV 48 [0 ffffffff 10 800] ------- [16:255 -1:255 29 0] [0x2 2 1 [19 0] [0 4]] (REQUEST)
r 0.253549186 _9_ RTR  --- 0 AODV 48 [0 ffffffff 10 800] ------- [16:255 -1:255 29 0] [0x2 2 1 [19 0] [0 4]] (REQUEST)
r 0.253549253 _8_ RTR  --- 0 AODV 48 [0 ffffffff 10 800] ------- [16:255 -1:255 29 0] [0x2 2 1 [19 0] [0 4]] (REQUEST)
r 0.253549319 _7_ RTR  --- 0 AODV 48 [0 ffffffff 10 800] ------- [16:255 -1:255 29 0] [0x2 2 1 [19 0] [0 4]] (REQUEST)
r 0.253549386 _6_ RTR  --- 0 AODV 48 [0 ffffffff 10 800] ------- [16:255 -1:255 29 0] [0x2 2 1 [19 0] [0 4]] (REQUEST)
r 0.253549386 _0_ RTR  --- 0 AODV 48 [0 ffffffff 10 800] ------- [16:255 -1:255 29 0] [0x2 2 1 [19 0] [0 4]] (REQUEST)
r 0.253549453 _5_ RTR  --- 0 AODV 48 [0 ffffffff 10 800] ------- [16:255 -1:255 29 0] [0x2 2 1 [19 0] [0 4]] (REQUEST)
r 0.253549453 _1_ RTR  --- 0 AODV 48 [0 ffffffff 10 800] ------- [16:255 -1:255 29 0] [0x2 2 1 [19 0] [0 4]] (REQUEST)
r 0.253549519 _4_ RTR  --- 0 AODV 48 [0 ffffffff 10 800] ------- [16:255 -1:255 29 0] [0x2 2 1 [19 0] [0 4]] (REQUEST)
r 0.253549519 _2_ RTR  --- 0 AODV 48 [0 ffffffff 10 800] ------- [16:255 -1:255 29 0] [0x2 2 1 [19 0] [0 4]] (REQUEST)
s 0.253991057 _10_ RTR  --- 0 AODV 48 [0 ffffffff 0 800] ------- [10:255 -1:255 29 0] [0x2 2 1 [19 0] [0 4]] (REQUEST)
s 0.254029751 _4_ RTR  --- 0 AODV 48 [0 ffffffff 0 800] ------- [4:255 -1:255 29 0] [0x2 2 1 [19 0] [0 4]] (REQUEST)
r 0.254419053 _19_ RTR  --- 0 AODV 48 [0 ffffffff c 800] ------- [12:255 -1:255 29 0] [0x2 2 1 [19 0] [0 4]] (REQUEST)
r 0.254419053 _13_ RTR  --- 0 AODV 48 [0 ffffffff c 800] ------- [12:255 -1:255 29 0] [0x2 2 1 [19 0] [0 4]] (REQUEST)
r 0.254419053 _11_ RTR  --- 0 AODV 48 [0 ffffffff c 800] ------- [12:255 -1:255 29 0] [0x2 2 1 [19 0] [0 4]] (REQUEST)
r 0.254419119 _18_ RTR  --- 0 AODV 48 [0 ffffffff c 800] ------- [12:255 -1:255 29 0] [0x2 2 1 [19 0] [0 4]] (REQUEST)
r 0.254419119 _14_ RTR  --- 0 AODV 48 [0 ffffffff c 800] ------- [12:255 -1:255 29 0] [0x2 2 1 [19 0] [0 4]] (REQUEST)
r 0.254419119 _10_ RTR  --- 0 AODV 48 [0 ffffffff c 800] ------- [12:255 -1:255 29 0] [0x2 2 1 [19 0] [0 4]] (REQUEST)
r 0.254419186 _17_ RTR  --- 0 AODV 48 [0 ffffffff c 800] ------- [12:255 -1:255 29 0] [0x2 2 1 [19 0] [0 4]] (REQUEST)
r 0.254419186 _15_ RTR  --- 0 AODV 48 [0 ffffffff c 800] ------- [12:255 -1:255 29 0] [0x2 2 1 [19 0] [0 4]] (REQUEST)
r 0.254419186 _9_ RTR  --- 0 AODV 48 [0 ffffffff c 800] ------- [12:255 -1:255 29 0] [0x2 2 1 [19 0] [0 4]] (REQUEST)
r 0.254419253 _16_ RTR  --- 0 AODV 48 [0 ffffffff c 800] ------- [12:255 -1:255 29 0] [0x2 2 1 [19 0] [0 4]] (REQUEST)
r 0.254419253 _8_ RTR  --- 0 AODV 48 [0 ffffffff c 800] ------- [12:255 -1:255 29 0] [0x2 2 1 [19 0] [0 4]] (REQUEST)
r 0.254419319 _7_ RTR  --- 0 AODV 48 [0 ffffffff c 800] ------- [12:255 -1:255 29 0] [0x2 2 1 [19 0] [0 4]] (REQUEST)
r 0.254419386 _6_ RTR  --- 0 AODV 48 [0 ffffffff c 800] ------- [12:255 -1:255 29 0] [0x2 2 1 [19 0] [0 4]] (REQUEST)
r 0.254419386 _0_ RTR  --- 0 AODV 48 [0 ffffffff c 800] ------- [12:255 -1:255 29 0] [0x2 2 1 [19 0] [0 4]] (REQUEST)
r 0.254419453 _5_ RTR  --- 0 AODV 48 [0 ffffffff c 800] ------- [12:255 -1:255 29 0] [0x2 2 1 [19 0] [0 4]] (REQUEST)
r 0.254419453 _1_ RTR  --- 0 AODV 48 [0 ffffffff c 800] ------- [12:255 -1:255 29 0] [0x2 2 1 [19 0] [0 4]] (REQUEST)
r 0.254419519 _4_ RTR  --- 0 AODV 48 [0 ffffffff c 800] ------- [12:255 -1:255 29 0] [0x2 2 1 [19 0] [0 4]] (REQUEST)
r 0.254419519 _2_ RTR  --- 0 AODV 48 [0 ffffffff c 800] ------- [12:255 -1:255 29 0] [0x2 2 1 [19 0] [0 4]] (REQUEST)
r 0.254419586 _3_ RTR  --- 0 AODV 48 [0 ffffffff c 800] ------- [12:255 -1:255 29 0] [0x2 2 1 [19 0] [0 4]] (REQUEST)
s 0.255137167 _15_ RTR  --- 0 AODV 48 [0 ffffffff 0 800] ------- [15:255 -1:255 29 0] [0x2 2 1 [19 0] [0 4]] (REQUEST)
s 0.255311800 _1_ RTR  --- 0 AODV 48 [0 ffffffff 0 800] ------- [1:255 -1:255 29 0] [0x2 2 1 [19 0] [0 4]] (REQUEST)
r 0.255369053 _19_ RTR  --- 0 AODV 48 [0 ffffffff d 800] ------- [13:255 -1:255 29 0] [0x2 2 1 [19 0] [0 4]] (REQUEST)
r 0.255369119 _18_ RTR  --- 0 AODV 48 [0 ffffffff d 800] ------- [13:255 -1:255 29 0] [0x2 2 1 [19 0] [0 4]] (REQUEST)
r 0.255369119 _14_ RTR  --- 0 AODV 48 [0 ffffffff d 800] ------- [13:255 -1:255 29 0] [0x2 2 1 [19 0] [0 4]] (REQUEST)
r 0.255369119 _12_ RTR  --- 0 AODV 48 [0 ffffffff d 800] ------- [13:255 -1:255 29 0] [0x2 2 1 [19 0] [0 4]] (REQUEST)
r 0.255369186 _17_ RTR  --- 0 AODV 48 [0 ffffffff d 800] ------- [13:255 -1:255 29 0] [0x2 2 1 [19 0] [0 4]] (REQUEST)
r 0.255369186 _15_ RTR  --- 0 AODV 48 [0 ffffffff d 800] ------- [13:255 -1:255 29 0] [0x2 2 1 [19 0] [0 4]] (REQUEST)
r 0.255369186 _11_ RTR  --- 0 AODV 48 [0 ffffffff d 800] ------- [13:255 -1:255 29 0] [0x2 2 1 [19 0] [0 4]] (REQUEST)
r 0.255369253 _16_ RTR  --- 0 AODV 48 [0 ffffffff d 800] ------- [13:255 -1:255 29 0] [0x2 2 1 [19 0] [0 4]] (REQUEST)
r 0.255369253 _10_ RTR  --- 0 AODV 48 [0 ffffffff d 800] ------- [13:255 -1:255 29 0] [0x2 2 1 [19 0] [0 4]] (REQUEST)
r 0.255369319 _9_ RTR  --- 0 AODV 48 [0 ffffffff d 800] ------- [13:255 -1:255 29 0] [0x2 2 1 [19 0] [0 4]] (REQUEST)
r 0.255369386 _8_ RTR  --- 0 AODV 48 [0 ffffffff d 800] ------- [13:255 -1:255 29 0] [0x2 2 1 [19 0] [0 4]] (REQUEST)
r 0.255369453 _7_ RTR  --- 0 AODV 48 [0 ffffffff d 800] ------- [13:255 -1:255 29 0] [0x2 2 1 [19 0] [0 4]] (REQUEST)
r 0.255369519 _6_ RTR  --- 0 AODV 48 [0 ffffffff d 800] ------- [13:255 -1:255 29 0] [0x2 2 1 [19 0] [0 4]] (REQUEST)
r 0.255369519 _0_ RTR  --- 0 AODV 48 [0 ffffffff d 800] ------- [13:255 -1:255 29 0] [0x2 2 1 [19 0] [0 4]] (REQUEST)
r 0.255369586 _5_ RTR  --- 0 AODV 48 [0 ffffffff d 800] ------- [13:255 -1:255 29 0] [0x2 2 1 [19 0] [0 4]] (REQUEST)
r 0.255369586 _1_ RTR  --- 0 AODV 48 [0 ffffffff d 800] ------- [13:255 -1:255 29 0] [0x2 2 1 [19 0] [0 4]] (REQUEST)
r 0.255369653 _4_ RTR  --- 0 AODV 48 [0 ffffffff d 800] ------- [13:255 -1:255 29 0] [0x2 2 1 [19 0] [0 4]] (REQUEST)
r 0.255369653 _2_ RTR  --- 0 AODV 48 [0 ffffffff d 800] ------- [13:255 -1:255 29 0] [0x2 2 1 [19 0] [0 4]] (REQUEST)
r 0.255369719 _3_ RTR  --- 0 AODV 48 [0 ffffffff d 800] ------- [13:255 -1:255 29 0] [0x2 2 1 [19 0] [0 4]] (REQUEST)
r 0.256239519 _8_ RTR  --- 0 AODV 48 [0 ffffffff 7 800] ------- [7:255 -1:255 29 0] [0x2 2 1 [19 0] [0 4]] (REQUEST)
r 0.256239519 _6_ RTR  --- 0 AODV 48 [0 ffffffff 7 800] ------- [7:255 -1:255 29 0] [0x2 2 1 [19 0] [0 4]] (REQUEST)
r 0.256239519 _0_ RTR  --- 0 AODV 48 [0 ffffffff 7 800] ------- [7:255 -1:255 29 0] [0x2 2 1 [19 0] [0 4]] (REQUEST)
r 0.256239586 _9_ RTR  --- 0 AODV 48 [0 ffffffff 7 800] ------- [7:255 -1:255 29 0] [0x2 2 1 [19 0] [0 4]] (REQUEST)
r 0.256239586 _5_ RTR  --- 0 AODV 48 [0 ffffffff 7 800] ------- [7:255 -1:255 29 0] [0x2 2 1 [19 0] [0 4]] (REQUEST)
r 0.256239586 _1_ RTR  --- 0 AODV 48 [0 ffffffff 7 800] ------- [7:255 -1:255 29 0] [0x2 2 1 [19 0] [0 4]] (REQUEST)
r 0.256239653 _10_ RTR  --- 0 AODV 48 [0 ffffffff 7 800] ------- [7:255 -1:255 29 0] [0x2 2 1 [19 0] [0 4]] (REQUEST)
r 0.256239653 _4_ RTR  --- 0 AODV 48 [0 ffffffff 7 800] ------- [7:255 -1:255 29 0] [0x2 2 1 [19 0] [0 4]] (REQUEST)
r 0.256239653 _2_ RTR  --- 0 AODV 48 [0 ffffffff 7 800] ------- [7:255 -1:255 29 0] [0x2 2 1 [19 0] [0 4]] (REQUEST)
r 0.256239719 _11_ RTR  --- 0 AODV 48 [0 ffffffff 7 800] ------- [7:255 -1:255 29 0] [0x2 2 1 [19 0] [0 4]] (REQUEST)
r 0.256239719 _3_ RTR  --- 0 AODV 48 [0 ffffffff 7 800] ------- [7:255 -1:255 29 0] [0x2 2 1 [19 0] [0 4]] (REQUEST)
r 0.256239786 _12_ RTR  --- 0 AODV 48 [0 ffffffff 7 800] ------- [7:255 -1:255 29 0] [0x2 2 1 [19 0] [0 4]] (REQUEST)
r 0.256239853 _19_ RTR  --- 0 AODV 48 [0 ffffffff 7 800] ------- [7:255 -1:255 29 0] [0x2 2 1 [19 0] [0 4]] (REQUEST)
r 0.256239853 _13_ RTR  --- 0 AODV 48 [0 ffffffff 7 800] ------- [7:255 -1:255 29 0] [0x2 2 1 [19 0] [0 4]] (REQUEST)
r 0.256239919 _18_ RTR  --- 0 AODV 48 [0 ffffffff 7 800] ------- [7:255 -1:255 29 0] [0x2 2 1 [19 0] [0 4]] (REQUEST)
r 0.256239919 _14_ RTR  --- 0 AODV 48 [0 ffffffff 7 800] ------- [7:255 -1:255 29 0] [0x2 2 1 [19 0] [0 4]] (REQUEST)
r 0.256239986 _17_ RTR  --- 0 AODV 48 [0 ffffffff 7 800] ------- [7:255 -1:255 29 0] [0x2 2 1 [19 0] [0 4]] (REQUEST)
r 0.256239986 _15_ RTR  --- 0 AODV 48 [0 ffffffff 7 800] ------- [7:255 -1:255 29 0] [0x2 2 1 [19 0] [0 4]] (REQUEST)
r 0.256240053 _16_ RTR  --- 0 AODV 48 [0 ffffffff 7 800] ------- [7:255 -1:255 29 0] [0x2 2 1 [19 0] [0 4]] (REQUEST)
s 0.256458807 _6_ RTR  --- 0 AODV 48 [0 ffffffff 0 800] ------- [6:255 -1:255 29 0] [0x2 2 1 [19 0] [0 4]] (REQUEST)
r 0.257109586 _5_ RTR  --- 0 AODV 48 [0 ffffffff 1 800] ------- [1:255 -1:255 29 0] [0x2 2 1 [19 0] [0 4]] (REQUEST)
r 0.257109653 _6_ RTR  --- 0 AODV 48 [0 ffffffff 1 800] ------- [1:255 -1:255 29 0] [0x2 2 1 [19 0] [0 4]] (REQUEST)
r 0.257109653 _4_ RTR  --- 0 AODV 48 [0 ffffffff 1 800] ------- [1:255 -1:255 29 0] [0x2 2 1 [19 0] [0 4]] (REQUEST)
r 0.257109653 _2_ RTR  --- 0 AODV 48 [0 ffffffff 1 800] ------- [1:255 -1:255 29 0] [0x2 2 1 [19 0] [0 4]] (REQUEST)
r 0.257109653 _0_ RTR  --- 0 AODV 48 [0 ffffffff 1 800] ------- [1:255 -1:255 29 0] [0x2 2 1 [19 0] [0 4]] (REQUEST)
r 0.257109719 _7_ RTR  --- 0 AODV 48 [0 ffffffff 1 800] ------- [1:255 -1:255 29 0] [0x2 2 1 [19 0] [0 4]] (REQUEST)
r 0.257109719 _3_ RTR  --- 0 AODV 48 [0 ffffffff 1 800] ------- [1:255 -1:255 29 0] [0x2 2 1 [19 0] [0 4]] (REQUEST)
r 0.257109786 _8_ RTR  --- 0 AODV 48 [0 ffffffff 1 800] ------- [1:255 -1:255 29 0] [0x2 2 1 [19 0] [0 4]] (REQUEST)
r 0.257109853 _9_ RTR  --- 0 AODV 48 [0 ffffffff 1 800] ------- [1:255 -1:255 29 0] [0x2 2 1 [19 0] [0 4]] (REQUEST)
r 0.257109919 _10_ RTR  --- 0 AODV 48 [0 ffffffff 1 800] ------- [1:255 -1:255 29 0] [0x2 2 1 [19 0] [0 4]] (REQUEST)
r 0.257109986 _11_ RTR  --- 0 AODV 48 [0 ffffffff 1 800] ------- [1:255 -1:255 29 0] [0x2 2 1 [19 0] [0 4]] (REQUEST)
r 0.257110053 _12_ RTR  --- 0 AODV 48 [0 ffffffff 1 800] ------- [1:255 -1:255 29 0] [0x2 2 1 [19 0] [0 4]] (REQUEST)
r 0.257110119 _19_ RTR  --- 0 AODV 48 [0 ffffffff 1 800] ------- [1:255 -1:255 29 0] [0x2 2 1 [19 0] [0 4]] (REQUEST)
r 0.257110119 _13_ RTR  --- 0 AODV 48 [0 ffffffff 1 800] ------- [1:255 -1:255 29 0] [0x2 2 1 [19 0] [0 4]] (REQUEST)
r 0.257110186 _18_ RTR  --- 0 AODV 48 [0 ffffffff 1 800] ------- [1:255 -1:255 29 0] [0x2 2 1 [19 0] [0 4]] (REQUEST)
r 0.257110186 _14_ RTR  --- 0 AODV 48 [0 ffffffff 1 800] ------- [1:255 -1:255 29 0] [0x2 2 1 [19 0] [0 4]] (REQUEST)
r 0.257110253 _17_ RTR  --- 0 AODV 48 [0 ffffffff 1 800] ------- [1:255 -1:255 29 0] [0x2 2 1 [19 0] [0 4]] (REQUEST)
r 0.257110253 _15_ RTR  --- 0 AODV 48 [0 ffffffff 1 800] ------- [1:255 -1:255 29 0] [0x2 2 1 [19 0] [0 4]] (REQUEST)
r 0.257110319 _16_ RTR  --- 0 AODV 48 [0 ffffffff 1 800] ------- [1:255 -1:255 29 0] [0x2 2 1 [19 0] [0 4]] (REQUEST)
s 0.257288851 _3_ RTR  --- 0 AODV 48 [0 ffffffff 0 800] ------- [3:255 -1:255 29 0] [0x2 2 1 [19 0] [0 4]] (REQUEST)
s 0.257301210 _18_ RTR  --- 0 AODV 48 [0 ffffffff 0 800] ------- [18:255 -1:255 29 0] [0x2 2 1 [19 0] [0 4]] (REQUEST)
r 0.258020186 _18_ RTR  --- 0 AODV 48 [0 ffffffff e 800] ------- [14:255 -1:255 29 0] [0x2 2 1 [19 0] [0 4]] (REQUEST)
r 0.258020253 _19_ RTR  --- 0 AODV 48 [0 ffffffff e 800] ------- [14:255 -1:255 29 0] [0x2 2 1 [19 0] [0 4]] (REQUEST)
r 0.258020253 _17_ RTR  --- 0 AODV 48 [0 ffffffff e 800] ------- [14:255 -1:255 29 0] [0x2 2 1 [19 0] [0 4]] (REQUEST)
r 0.258020253 _15_ RTR  --- 0 AODV 48 [0 ffffffff e 800] ------- [14:255 -1:255 29 0] [0x2 2 1 [19 0] [0 4]] (REQUEST)
r 0.258020253 _13_ RTR  --- 0 AODV 48 [0 ffffffff e 800] ------- [14:255 -1:255 29 0] [0x2 2 1 [19 0] [0 4]] (REQUEST)
r 0.258020319 _16_ RTR  --- 0 AODV 48 [0 ffffffff e 800] ------- [14:255 -1:255 29 0] [0x2 2 1 [19 0] [0 4]] (REQUEST)
r 0.258020319 _12_ RTR  --- 0 AODV 48 [0 ffffffff e 800] ------- [14:255 -1:255 29 0] [0x2 2 1 [19 0] [0 4]] (REQUEST)
r 0.258020386 _11_ RTR  --- 0 AODV 48 [0 ffffffff e 800] ------- [14:255 -1:255 29 0] [0x2 2 1 [19 0] [0 4]] (REQUEST)
r 0.258020453 _10_ RTR  --- 0 AODV 48 [0 ffffffff e 800] ------- [14:255 -1:255 29 0] [0x2 2 1 [19 0] [0 4]] (REQUEST)
r 0.258020519 _9_ RTR  --- 0 AODV 48 [0 ffffffff e 800] ------- [14:255 -1:255 29 0] [0x2 2 1 [19 0] [0 4]] (REQUEST)
r 0.258020586 _8_ RTR  --- 0 AODV 48 [0 ffffffff e 800] ------- [14:255 -1:255 29 0] [0x2 2 1 [19 0] [0 4]] (REQUEST)
r 0.258020653 _7_ RTR  --- 0 AODV 48 [0 ffffffff e 800] ------- [14:255 -1:255 29 0] [0x2 2 1 [19 0] [0 4]] (REQUEST)
r 0.258020719 _6_ RTR  --- 0 AODV 48 [0 ffffffff e 800] ------- [14:255 -1:255 29 0] [0x2 2 1 [19 0] [0 4]] (REQUEST)
r 0.258020719 _0_ RTR  --- 0 AODV 48 [0 ffffffff e 800] ------- [14:255 -1:255 29 0] [0x2 2 1 [19 0] [0 4]] (REQUEST)
r 0.258020786 _5_ RTR  --- 0 AODV 48 [0 ffffffff e 800] ------- [14:255 -1:255 29 0] [0x2 2 1 [19 0] [0 4]] (REQUEST)
r 0.258020786 _1_ RTR  --- 0 AODV 48 [0 ffffffff e 800] ------- [14:255 -1:255 29 0] [0x2 2 1 [19 0] [0 4]] (REQUEST)
r 0.258020853 _4_ RTR  --- 0 AODV 48 [0 ffffffff e 800] ------- [14:255 -1:255 29 0] [0x2 2 1 [19 0] [0 4]] (REQUEST)
r 0.258020853 _2_ RTR  --- 0 AODV 48 [0 ffffffff e 800] ------- [14:255 -1:255 29 0] [0x2 2 1 [19 0] [0 4]] (REQUEST)
r 0.258020919 _3_ RTR  --- 0 AODV 48 [0 ffffffff e 800] ------- [14:255 -1:255 29 0] [0x2 2 1 [19 0] [0 4]] (REQUEST)
s 0.258891688 _8_ RTR  --- 0 AODV 48 [0 ffffffff 0 800] ------- [8:255 -1:255 29 0] [0x2 2 1 [19 0] [0 4]] (REQUEST)
s 0.259064894 _2_ RTR  --- 0 AODV 48 [0 ffffffff 0 800] ------- [2:255 -1:255 29 0] [0x2 2 1 [19 0] [0 4]] (REQUEST)
s 0.259263569 _11_ RTR  --- 0 AODV 48 [0 ffffffff 0 800] ------- [11:255 -1:255 29 0] [0x2 2 1 [19 0] [0 4]] (REQUEST)
s 0.259497877 _17_ RTR  --- 0 AODV 48 [0 ffffffff 0 800] ------- [17:255 -1:255 29 0] [0x2 2 1 [19 0] [0 4]] (REQUEST)
r 0.260286610 _0_ RTR  --- 0 AODV 44 [13a 0 13 800] ------- [19:255 0:255 30 0] [0x4 1 [19 2] 10.000000] (REPLY)
s 0.260286610 _0_ RTR  --- 0 cbr 1020 [0 0 0 0] ------- [0:0 19:0 30 19] [0] 0 0
r 0.261510610 _0_ RTR  --- 0 AODV 48 [0 ffffffff 6 800] ------- [6:255 -1:255 29 0] [0x2 2 1 [19 0] [0 4]] (REQUEST)
r 0.261510677 _7_ RTR  --- 0 AODV 48 [0 ffffffff 6 800] ------- [6:255 -1:255 29 0] [0x2 2 1 [19 0] [0 4]] (REQUEST)
r 0.261510677 _5_ RTR  --- 0 AODV 48 [0 ffffffff 6 800] ------- [6:255 -1:255 29 0] [0x2 2 1 [19 0] [0 4]] (REQUEST)
r 0.261510677 _1_ RTR  --- 0 AODV 48 [0 ffffffff 6 800] ------- [6:255 -1:255 29 0] [0x2 2 1 [19 0] [0 4]] (REQUEST)
r 0.261510743 _8_ RTR  --- 0 AODV 48 [0 ffffffff 6 800] ------- [6:255 -1:255 29 0] [0x2 2 1 [19 0] [0 4]] (REQUEST)
r 0.261510743 _4_ RTR  --- 0 AODV 48 [0 ffffffff 6 800] ------- [6:255 -1:255 29 0] [0x2 2 1 [19 0] [0 4]] (REQUEST)
r 0.261510743 _2_ RTR  --- 0 AODV 48 [0 ffffffff 6 800] ------- [6:255 -1:255 29 0] [0x2 2 1 [19 0] [0 4]] (REQUEST)
r 0.261510810 _3_ RTR  --- 0 AODV 48 [0 ffffffff 6 800] ------- [6:255 -1:255 29 0] [0x2 2 1 [19 0] [0 4]] (REQUEST)
r 0.261511277 _16_ RTR  --- 0 AODV 48 [0 ffffffff 11 800] ------- [17:255 -1:255 29 0] [0x2 2 1 [19 0] [0 4]] (REQUEST)
r 0.262845277 _14_ RTR  --- 0 AODV 48 [0 ffffffff 12 800] ------- [18:255 -1:255 29 0] [0x2 2 1 [19 0] [0 4]] (REQUEST)
r 0.262845343 _19_ RTR  --- 0 AODV 48 [0 ffffffff 12 800] ------- [18:255 -1:255 29 0] [0x2 2 1 [19 0] [0 4]] (REQUEST)
r 0.262845343 _17_ RTR  --- 0 AODV 48 [0 ffffffff 12 800] ------- [18:255 -1:255 29 0] [0x2 2 1 [19 0] [0 4]] (REQUEST)
r 0.262845343 _15_ RTR  --- 0 AODV 48 [0 ffffffff 12 800] ------- [18:255 -1:255 29 0] [0x2 2 1 [19 0] [0 4]] (REQUEST)
r 0.262845343 _13_ RTR  --- 0 AODV 48 [0 ffffffff 12 800] ------- [18:255 -1:255 29 0] [0x2 2 1 [19 0] [0 4]] (REQUEST)
r 0.262845410 _16_ RTR  --- 0 AODV 48 [0 ffffffff 12 800] ------- [18:255 -1:255 29 0] [0x2 2 1 [19 0] [0 4]] (REQUEST)
r 0.262845410 _12_ RTR  --- 0 AODV 48 [0 ffffffff 12 800] ------- [18:255 -1:255 29 0] [0x2 2 1 [19 0] [0 4]] (REQUEST)
r 0.262845477 _11_ RTR  --- 0 AODV 48 [0 ffffffff 12 800] ------- [18:255 -1:255 29 0] [0x2 2 1 [19 0] [0 4]] (REQUEST)
r 0.265314877 _4_ RTR  --- 0 AODV 48 [0 ffffffff 2 800] ------- [2:255 -1:255 29 0] [0x2 2 1 [19 0] [0 4]] (REQUEST)
r 0.265314943 _5_ RTR  --- 0 AODV 48 [0 ffffffff 2 800] ------- [2:255 -1:255 29 0] [0x2 2 1 [19 0] [0 4]] (REQUEST)
r 0.265314943 _3_ RTR  --- 0 AODV 48 [0 ffffffff 2 800] ------- [2:255 -1:255 29 0] [0x2 2 1 [19 0] [0 4]] (REQUEST)
r 0.265314943 _1_ RTR  --- 0 AODV 48 [0 ffffffff 2 800] ------- [2:255 -1:255 29 0] [0x2 2 1 [19 0] [0 4]] (REQUEST)
r 0.265315010 _6_ RTR  --- 0 AODV 48 [0 ffffffff 2 800] ------- [2:255 -1:255 29 0] [0x2 2 1 [19 0] [0 4]] (REQUEST)
r 0.265315010 _0_ RTR  --- 0 AODV 48 [0 ffffffff 2 800] ------- [2:255 -1:255 29 0] [0x2 2 1 [19 0] [0 4]] (REQUEST)
r 0.265315077 _7_ RTR  --- 0 AODV 48 [0 ffffffff 2 800] ------- [2:255 -1:255 29 0] [0x2 2 1 [19 0] [0 4]] (REQUEST)
r 0.265315143 _8_ RTR  --- 0 AODV 48 [0 ffffffff 2 800] ------- [2:255 -1:255 29 0] [0x2 2 1 [19 0] [0 4]] (REQUEST)
r 0.265315210 _9_ RTR  --- 0 AODV 48 [0 ffffffff 2 800] ------- [2:255 -1:255 29 0] [0x2 2 1 [19 0] [0 4]] (REQUEST)
r 0.265315277 _10_ RTR  --- 0 AODV 48 [0 ffffffff 2 800] ------- [2:255 -1:255 29 0] [0x2 2 1 [19 0] [0 4]] (REQUEST)
r 0.265315343 _11_ RTR  --- 0 AODV 48 [0 ffffffff 2 800] ------- [2:255 -1:255 29 0] [0x2 2 1 [19 0] [0 4]] (REQUEST)
r 0.265315410 _12_ RTR  --- 0 AODV 48 [0 ffffffff 2 800] ------- [2:255 -1:255 29 0] [0x2 2 1 [19 0] [0 4]] (REQUEST)
r 0.265315477 _19_ RTR  --- 0 AODV 48 [0 ffffffff 2 800] ------- [2:255 -1:255 29 0] [0x2 2 1 [19 0] [0 4]] (REQUEST)
r 0.265315477 _13_ RTR  --- 0 AODV 48 [0 ffffffff 2 800] ------- [2:255 -1:255 29 0] [0x2 2 1 [19 0] [0 4]] (REQUEST)
r 0.265315543 _18_ RTR  --- 0 AODV 48 [0 ffffffff 2 800] ------- [2:255 -1:255 29 0] [0x2 2 1 [19 0] [0 4]] (REQUEST)
r 0.265315543 _14_ RTR  --- 0 AODV 48 [0 ffffffff 2 800] ------- [2:255 -1:255 29 0] [0x2 2 1 [19 0] [0 4]] (REQUEST)
r 0.265315610 _17_ RTR  --- 0 AODV 48 [0 ffffffff 2 800] ------- [2:255 -1:255 29 0] [0x2 2 1 [19 0] [0 4]] (REQUEST)
r 0.265315610 _15_ RTR  --- 0 AODV 48 [0 ffffffff 2 800] ------- [2:255 -1:255 29 0] [0x2 2 1 [19 0] [0 4]] (REQUEST)
r 0.265315677 _16_ RTR  --- 0 AODV 48 [0 ffffffff 2 800] ------- [2:255 -1:255 29 0] [0x2 2 1 [19 0] [0 4]] (REQUEST)
r 0.266185610 _17_ RTR  --- 0 AODV 48 [0 ffffffff f 800] ------- [15:255 -1:255 29 0] [0x2 2 1 [19 0] [0 4]] (REQUEST)
r 0.266185677 _18_ RTR  --- 0 AODV 48 [0 ffffffff f 800] ------- [15:255 -1:255 29 0] [0x2 2 1 [19 0] [0 4]] (REQUEST)
r 0.266185677 _16_ RTR  --- 0 AODV 48 [0 ffffffff f 800] ------- [15:255 -1:255 29 0] [0x2 2 1 [19 0] [0 4]] (REQUEST)
r 0.266185677 _14_ RTR  --- 0 AODV 48 [0 ffffffff f 800] ------- [15:255 -1:255 29 0] [0x2 2 1 [19 0] [0 4]] (REQUEST)
r 0.266185743 _19_ RTR  --- 0 AODV 48 [0 ffffffff f 800] ------- [15:255 -1:255 29 0] [0x2 2 1 [19 0] [0 4]] (REQUEST)
r 0.266185743 _13_ RTR  --- 0 AODV 48 [0 ffffffff f 800] ------- [15:255 -1:255 29 0] [0x2 2 1 [19 0] [0 4]] (REQUEST)
r 0.266185810 _12_ RTR  --- 0 AODV 48 [0 ffffffff f 800] ------- [15:255 -1:255 29 0] [0x2 2 1 [19 0] [0 4]] (REQUEST)
r 0.266185877 _11_ RTR  --- 0 AODV 48 [0 ffffffff f 800] ------- [15:255 -1:255 29 0] [0x2 2 1 [19 0] [0 4]] (REQUEST)
r 0.266185943 _10_ RTR  --- 0 AODV 48 [0 ffffffff f 800] ------- [15:255 -1:255 29 0] [0x2 2 1 [19 0] [0 4]] (REQUEST)
r 0.266186010 _9_ RTR  --- 0 AODV 48 [0 ffffffff f 800] ------- [15:255 -1:255 29 0] [0x2 2 1 [19 0] [0 4]] (REQUEST)
r 0.266186077 _8_ RTR  --- 0 AODV 48 [0 ffffffff f 800] ------- [15:255 -1:255 29 0] [0x2 2 1 [19 0] [0 4]] (REQUEST)
r 0.266186143 _7_ RTR  --- 0 AODV 48 [0 ffffffff f 800] ------- [15:255 -1:255 29 0] [0x2 2 1 [19 0] [0 4]] (REQUEST)
r 0.266186210 _6_ RTR  --- 0 AODV 48 [0 ffffffff f 800] ------- [15:255 -1:255 29 0] [0x2 2 1 [19 0] [0 4]] (REQUEST)
r 0.266186210 _0_ RTR  --- 0 AODV 48 [0 ffffffff f 800] ------- [15:255 -1:255 29 0] [0x2 2 1 [19 0] [0 4]] (REQUEST)
r 0.266186277 _5_ RTR  --- 0 AODV 48 [0 ffffffff f 800] ------- [15:255 -1:255 29 0] [0x2 2 1 [19 0] [0 4]] (REQUEST)
r 0.266186277 _1_ RTR  --- 0 AODV 48 [0 ffffffff f 800] ------- [15:255 -1:255 29 0] [0x2 2 1 [19 0] [0 4]] (REQUEST)
r 0.266186343 _4_ RTR  --- 0 AODV 48 [0 ffffffff f 800] ------- [15:255 -1:255 29 0] [0x2 2 1 [19 0] [0 4]] (REQUEST)
r 0.266186343 _2_ RTR  --- 0 AODV 48 [0 ffffffff f 800] ------- [15:255 -1:255 29 0] [0x2 2 1 [19 0] [0 4]] (REQUEST)
r 0.266186410 _3_ RTR  --- 0 AODV 48 [0 ffffffff f 800] ------- [15:255 -1:255 29 0] [0x2 2 1 [19 0] [0 4]] (REQUEST)
r 0.267056477 _4_ RTR  --- 0 AODV 48 [0 ffffffff 3 800] ------- [3:255 -1:255 29 0] [0x2 2 1 [19 0] [0 4]] (REQUEST)
r 0.267056477 _2_ RTR  --- 0 AODV 48 [0 ffffffff 3 800] ------- [3:255 -1:255 29 0] [0x2 2 1 [19 0] [0 4]] (REQUEST)
r 0.267056543 _5_ RTR  --- 0 AODV 48 [0 ffffffff 3 800] ------- [3:255 -1:255 29 0] [0x2 2 1 [19 0] [0 4]] (REQUEST)
r 0.267056543 _1_ RTR  --- 0 AODV 48 [0 ffffffff 3 800] ------- [3:255 -1:255 29 0] [0x2 2 1 [19 0] [0 4]] (REQUEST)
r 0.267056610 _6_ RTR  --- 0 AODV 48 [0 ffffffff 3 800] ------- [3:255 -1:255 29 0] [0x2 2 1 [19 0] [0 4]] (REQUEST)
r 0.267056610 _0_ RTR  --- 0 AODV 48 [0 ffffffff 3 800] ------- [3:255 -1:255 29 0] [0x2 2 1 [19 0] [0 4]] (REQUEST)
r 0.267056677 _7_ RTR  --- 0 AODV 48 [0 ffffffff 3 800] ------- [3:255 -1:255 29 0] [0x2 2 1 [19 0] [0 4]] (REQUEST)
r 0.267056743 _8_ RTR  --- 0 AODV 48 [0 ffffffff 3 800] ------- [3:255 -1:255 29 0] [0x2 2 1 [19 0] [0 4]] (REQUEST)
r 0.267056810 _9_ RTR  --- 0 AODV 48 [0 ffffffff 3 800] ------- [3:255 -1:255 29 0] [0x2 2 1 [19 0] [0 4]] (REQUEST)
r 0.267056877 _10_ RTR  --- 0 AODV 48 [0 ffffffff 3 800] ------- [3:255 -1:255 29 0] [0x2 2 1 [19 0] [0 4]] (REQUEST)
r 0.267056943 _11_ RTR  --- 0 AODV 48 [0 ffffffff 3 800] ------- [3:255 -1:255 29 0] [0x2 2 1 [19 0] [0 4]] (REQUEST)
r 0.267057010 _12_ RTR  --- 0 AODV 48 [0 ffffffff 3 800] ------- [3:255 -1:255 29 0] [0x2 2 1 [19 0] [0 4]] (REQUEST)
r 0.267057077 _19_ RTR  --- 0 AODV 48 [0 ffffffff 3 800] ------- [3:255 -1:255 29 0] [0x2 2 1 [19 0] [0 4]] (REQUEST)
r 0.267057077 _13_ RTR  --- 0 AODV 48 [0 ffffffff 3 800] ------- [3:255 -1:255 29 0] [0x2 2 1 [19 0] [0 4]] (REQUEST)
r 0.267057143 _18_ RTR  --- 0 AODV 48 [0 ffffffff 3 800] ------- [3:255 -1:255 29 0] [0x2 2 1 [19 0] [0 4]] (REQUEST)
r 0.267057143 _14_ RTR  --- 0 AODV 48 [0 ffffffff 3 800] ------- [3:255 -1:255 29 0] [0x2 2 1 [19 0] [0 4]] (REQUEST)
r 0.267057210 _17_ RTR  --- 0 AODV 48 [0 ffffffff 3 800] ------- [3:255 -1:255 29 0] [0x2 2 1 [19 0] [0 4]] (REQUEST)
r 0.267057210 _15_ RTR  --- 0 AODV 48 [0 ffffffff 3 800] ------- [3:255 -1:255 29 0] [0x2 2 1 [19 0] [0 4]] (REQUEST)
r 0.268006943 _11_ RTR  --- 0 AODV 48 [0 ffffffff a 800] ------- [10:255 -1:255 29 0] [0x2 2 1 [19 0] [0 4]] (REQUEST)
r 0.268006943 _9_ RTR  --- 0 AODV 48 [0 ffffffff a 800] ------- [10:255 -1:255 29 0] [0x2 2 1 [19 0] [0 4]] (REQUEST)
r 0.268007010 _12_ RTR  --- 0 AODV 48 [0 ffffffff a 800] ------- [10:255 -1:255 29 0] [0x2 2 1 [19 0] [0 4]] (REQUEST)
r 0.268007010 _8_ RTR  --- 0 AODV 48 [0 ffffffff a 800] ------- [10:255 -1:255 29 0] [0x2 2 1 [19 0] [0 4]] (REQUEST)
r 0.268007077 _19_ RTR  --- 0 AODV 48 [0 ffffffff a 800] ------- [10:255 -1:255 29 0] [0x2 2 1 [19 0] [0 4]] (REQUEST)