W -t * -x 400 -y 400
n -t * -s 0  -x 100 -y 200 -Z 0 -z 10  -v circle -c black
n -t * -s 1  -x 300 -y 200 -Z 0 -z 10  -v circle -c black
V -t * -v 1.0a5 -a 0
A -t * -n 1 -p 0 -o 0xffffffff -c 31 -a 1
A -t * -h 1 -m 2147483647 -s 0
n -t 0 -s 0 -S DLABEL -l "Sender" -L ""
n -t 0 -s 1 -S DLABEL -l "Receiver" -L ""
+ -t 0.250000000 -s 0 -d -1 -p cbr -e 1000 -c 2 -a 0 -i 0 -k AGT 
- -t 0.250000000 -s 0 -d -1 -p cbr -e 1000 -c 2 -a 0 -i 0 -k AGT
h -t 0.250000000 -s 0 -d -1 -p cbr -e 1000 -c 2 -a 0 -i 0 -k AGT
+ -t 0.250000000 -s 0 -d -1 -p AODV -e 48 -c 2 -a 0 -i 0 -k RTR 
- -t 0.250000000 -s 0 -d -1 -p AODV -e 48 -c 2 -a 0 -i 0 -k RTR
h -t 0.250000000 -s 0 -d -1 -p AODV -e 48 -c 2 -a 0 -i 0 -k RTR
r -t 0.250900667 -s 1 -d -1 -p AODV -e 48 -c 2 -a 0 -i 0 -k RTR
+ -t 0.250900667 -s 1 -d 0 -p AODV -e 44 -c 2 -a 0 -i 0 -k RTR 
- -t 0.250900667 -s 1 -d 0 -p AODV -e 44 -c 2 -a 0 -i 0 -k RTR
h -t 0.250900667 -s 1 -d 0 -p AODV -e 44 -c 2 -a 0 -i 0 -k RTR
+ -t 0.254308424 -s 0 -d 1 -p cbr -e 1020 -c 2 -a 0 -i 0 -k RTR 
- -t 0.254308424 -s 0 -d 1 -p cbr -e 1020 -c 2 -a 0 -i 0 -k RTR
h -t 0.254308424 -s 0 -d 1 -p cbr -e 1020 -c 2 -a 0 -i 0 -k RTR
r -t 0.256864606 -s 1 -d 1 -p cbr -e 1020 -c 2 -a 0 -i 0 -k AGT
+ -t 0.270000000 -s 0 -d -1 -p cbr -e 1000 -c 2 -a 0 -i 1 -k AGT 
- -t 0.270000000 -s 0 -d -1 -p cbr -e 1000 -c 2 -a 0 -i 1 -k AGT
h -t 0.270000000 -s 0 -d -1 -p cbr -e 1000 -c 2 -a 0 -i 1 -k AGT
+ -t 0.270000000 -s 0 -d 1 -p cbr -e 1020 -c 2 -a 0 -i 1 -k RTR 
- -t 0.270000000 -s 0 -d 1 -p cbr -e 1020 -c 2 -a 0 -i 1 -k RTR
h -t 0.270000000 -s 0 -d 1 -p cbr -e 1020 -c 2 -a 0 -i 1 -k RTR
r -t 0.271732182 -s 1 -d 1 -p cbr -e 1020 -c 2 -a 0 -i 1 -k AGT
+ -t 0.290000000 -s 0 -d -1 -p cbr -e 1000 -c 2 -a 0 -i 2 -k AGT 
- -t 0.290000000 -s 0 -d -1 -p cbr -e 1000 -c 2 -a 0 -i 2 -k AGT
h -t 0.290000000 -s 0 -d -1 -p cbr -e 1000 -c 2 -a 0 -i 2 -k AGT
+ -t 0.290000000 -s 0 -d 1 -p cbr -e 1020 -c 2 -a 0 -i 2 -k RTR 
- -t 0.290000000 -s 0 -d 1 -p cbr -e 1020 -c 2 -a 0 -i 2 -k RTR
h -t 0.290000000 -s 0 -d 1 -p cbr -e 1020 -c 2 -a 0 -i 2 -k RTR
r -t 0.291732182 -s 1 -d 1 -p cbr -e 1020 -c 2 -a 0 -i 2 -k AGT
+ -t 0.310000000 -s 0 -d -1 -p cbr -e 1000 -c 2 -a 0 -i 3 -k AGT 
- -t 0.310000000 -s 0 -d -1 -p cbr -e 1000 -c 2 -a 0 -i 3 -k AGT
h -t 0.310000000 -s 0 -d -1 -p cbr -e 1000 -c 2 -a 0 -i 3 -k AGT
+ -t 0.310000000 -s 0 -d 1 -p cbr -e 1020 -c 2 -a 0 -i 3 -k RTR 
- -t 0.310000000 -s 0 -d 1 -p cbr -e 1020 -c 2 -a 0 -i 3 -k RTR
h -t 0.310000000 -s 0 -d 1 -p cbr -e 1020 -c 2 -a 0 -i 3 -k RTR
r -t 0.311732182 -s 1 -d 1 -p cbr -e 1020 -c 2 -a 0 -i 3 -k AGT
+ -t 0.330000000 -s 0 -d -1 -p cbr -e 1000 -c 2 -a 0 -i 4 -k AGT 
- -t 0.330000000 -s 0 -d -1 -p cbr -e 1000 -c 2 -a 0 -i 4 -k AGT
h -t 0.330000000 -s 0 -d -1 -p cbr -e 1000 -c 2 -a 0 -i 4 -k AGT
+ -t 0.330000000 -s 0 -d 1 -p cbr -e 1020 -c 2 -a 0 -i 4 -k RTR 
- -t 0.330000000 -s 0 -d 1 -p cbr -e 1020 -c 2 -a 0 -i 4 -k RTR
h -t 0.330000000 -s 0 -d 1 -p cbr -e 1020 -c 2 -a 0 -i 4 -k RTR
r -t 0.331732182 -s 1 -d 1 -p cbr -e 1020 -c 2 -a 0 -i 4 -k AGT
+ -t 0.350000000 -s 0 -d -1 -p cbr -e 1000 -c 2 -a 0 -i 5 -k AGT 
- -t 0.350000000 -s 0 -d -1 -p cbr -e 1000 -c 2 -a 0 -i 5 -k AGT
h -t 0.350000000 -s 0 -d -1 -p cbr -e 1000 -c 2 -a 0 -i 5 -k AGT
+ -t 0.350000000 -s 0 -d 1 -p cbr -e 1020 -c 2 -a 0 -i 5 -k RTR 
- -t 0.350000000 -s 0 -d 1 -p cbr -e 1020 -c 2 -a 0 -i 5 -k RTR
h -t 0.350000000 -s 0 -d 1 -p cbr -e 1020 -c 2 -a 0 -i 5 -k RTR
r -t 0.351732182 -s 1 -d 1 -p cbr -e 1020 -c 2 -a 0 -i 5 -k AGT
+ -t 0.370000000 -s 0 -d -1 -p cbr -e 1000 -c 2 -a 0 -i 6 -k AGT 
- -t 0.370000000 -s 0 -d -1 -p cbr -e 1000 -c 2 -a 0 -i 6 -k AGT
h -t 0.370000000 -s 0 -d -1 -p cbr -e 1000 -c 2 -a 0 -i 6 -k AGT
+ -t 0.370000000 -s 0 -d 1 -p cbr -e 1020 -c 2 -a 0 -i 6 -k RTR 
- -t 0.370000000 -s 0 -d 1 -p cbr -e 1020 -c 2 -a 0 -i 6 -k RTR
h -t 0.370000000 -s 0 -d 1 -p cbr -e 1020 -c 2 -a 0 -i 6 -k RTR
r -t 0.371732182 -s 1 -d 1 -p cbr -e 1020 -c 2 -a 0 -i 6 -k AGT
+ -t 0.390000000 -s 0 -d -1 -p cbr -e 1000 -c 2 -a 0 -i 7 -k AGT 
- -t 0.390000000 -s 0 -d -1 -p cbr -e 1000 -c 2 -a 0 -i 7 -k AGT
h -t 0.390000000 -s 0 -d -1 -p cbr -e 1000 -c 2 -a 0 -i 7 -k AGT
+ -t 0.390000000 -s 0 -d 1 -p cbr -e 1020 -c 2 -a 0 -i 7 -k RTR 
- -t 0.390000000 -s 0 -d 1 -p cbr -e 1020 -c 2 -a 0 -i 7 -k RTR
h -t 0.390000000 -s 0 -d 1 -p cbr -e 1020 -c 2 -a 0 -i 7 -k RTR
r -t 0.391732182 -s 1 -d 1 -p cbr -e 1020 -c 2 -a 0 -i 7 -k AGT
+ -t 0.410000000 -s 0 -d -1 -p cbr -e 1000 -c 2 -a 0 -i 8 -k AGT 
- -t 0.410000000 -s 0 -d -1 -p cbr -e 1000 -c 2 -a 0 -i 8 -k AGT
h -t 0.410000000 -s 0 -d -1 -p cbr -e 1000 -c 2 -a 0 -i 8 -k AGT
+ -t 0.410000000 -s 0 -d 1 -p cbr -e 1020 -c 2 -a 0 -i 8 -k RTR 
- -t 0.410000000 -s 0 -d 1 -p cbr -e 1020 -c 2 -a 0 -i 8 -k RTR
h -t 0.410000000 -s 0 -d 1 -p cbr -e 1020 -c 2 -a 0 -i 8 -k RTR
r -t 0.411732182 -s 1 -d 1 -p cbr -e 1020 -c 2 -a 0 -i 8 -k AGT
+ -t 0.430000000 -s 0 -d -1 -p cbr -e 1000 -c 2 -a 0 -i 9 -k AGT 
- -t 0.430000000 -s 0 -d -1 -p cbr -e 1000 -c 2 -a 0 -i 9 -k AGT
h -t 0.430000000 -s 0 -d -1 -p cbr -e 1000 -c 2 -a 0 -i 9 -k AGT
+ -t 0.430000000 -s 0 -d 1 -p cbr -e 1020 -c 2 -a 0 -i 9 -k RTR 
- -t 0.430000000 -s 0 -d 1 -p cbr -e 1020 -c 2 -a 0 -i 9 -k RTR
h -t 0.430000000 -s 0 -d 1 -p cbr -e 1020 -c 2 -a 0 -i 9 -k RTR
r -t 0.431732182 -s 1 -d 1 -p cbr -e 1020 -c 2 -a 0 -i 9 -k AGT
+ -t 0.450000000 -s 0 -d -1 -p cbr -e 1000 -c 2 -a 0 -i 10 -k AGT 
- -t 0.450000000 -s 0 -d -1 -p cbr -e 1000 -c 2 -a 0 -i 10 -k AGT
h -t 0.450000000 -s 0 -d -1 -p cbr -e 1000 -c 2 -a 0 -i 10 -k AGT
+ -t 0.450000000 -s 0 -d 1 -p cbr -e 1020 -c 2 -a 0 -i 10 -k RTR 
- -t 0.450000000 -s 0 -d 1 -p cbr -e 1020 -c 2 -a 0 -i 10 -k RTR
h -t 0.450000000 -s 0 -d 1 -p cbr -e 1020 -c 2 -a 0 -i 10 -k RTR
r -t 0.451732182 -s 1 -d 1 -p cbr -e 1020 -c 2 -a 0 -i 10 -k AGT
+ -t 0.470000000 -s 0 -d -1 -p cbr -e 1000 -c 2 -a 0 -i 11 -k AGT 
- -t 0.470000000 -s 0 -d -1 -p cbr -e 1000 -c 2 -a 0 -i 11 -k AGT
h -t 0.470000000 -s 0 -d -1 -p cbr -e 1000 -c 2 -a 0 -i 11 -k AGT
+ -t 0.470000000 -s 0 -d 1 -p cbr -e 1020 -c 2 -a 0 -i 11 -k RTR 
- -t 0.470000000 -s 0 -d 1 -p cbr -e 1020 -c 2 -a 0 -i 11 -k RTR
h -t 0.470000000 -s 0 -d 1 -p cbr -e 1020 -c 2 -a 0 -i 11 -k RTR
r -t 0.471732182 -s 1 -d 1 -p cbr -e 1020 -c 2 -a 0 -i 11 -k AGT
+ -t 0.490000000 -s 0 -d -1 -p cbr -e 1000 -c 2 -a 0 -i 12 -k AGT 
- -t 0.490000000 -s 0 -d -1 -p cbr -e 1000 -c 2 -a 0 -i 12 -k AGT
h -t 0.490000000 -s 0 -d -1 -p cbr -e 1000 -c 2 -a 0 -i 12 -k AGT
+ -t 0.490000000 -s 0 -d 1 -p cbr -e 1020 -c 2 -a 0 -i 12 -k RTR 
- -t 0.490000000 -s 0 -d 1 -p cbr -e 1020 -c 2 -a 0 -i 12 -k RTR
h -t 0.490000000 -s 0 -d 1 -p cbr -e 1020 -c 2 -a 0 -i 12 -k RTR
r -t 0.491732182 -s 1 -d 1 -p cbr -e 1020 -c 2 -a 0 -i 12 -k AGT
+ -t 0.510000000 -s 0 -d -1 -p cbr -e 1000 -c 2 -a 0 -i 13 -k AGT 
- -t 0.510000000 -s 0 -d -1 -p cbr -e 1000 -c 2 -a 0 -i 13 -k AGT
h -t 0.510000000 -s 0 -d -1 -p cbr -e 1000 -c 2 -a 0 -i 13 -k AGT
+ -t 0.510000000 -s 0 -d 1 -p cbr -e 1020 -c 2 -a 0 -i 13 -k RTR 
- -t 0.510000000 -s 0 -d 1 -p cbr -e 1020 -c 2 -a 0 -i 13 -k RTR
h -t 0.510000000 -s 0 -d 1 -p cbr -e 1020 -c 2 -a 0 -i 13 -k RTR
r -t 0.511732182 -s 1 -d 1 -p cbr -e 1020 -c 2 -a 0 -i 13 -k AGT
+ -t 0.530000000 -s 0 -d -1 -p cbr -e 1000 -c 2 -a 0 -i 14 -k AGT 
- -t 0.530000000 -s 0 -d -1 -p cbr -e 1000 -c 2 -a 0 -i 14 -k AGT
h -t 0.530000000 -s 0 -d -1 -p cbr -e 1000 -c 2 -a 0 -i 14 -k AGT
+ -t 0.530000000 -s 0 -d 1 -p cbr -e 1020 -c 2 -a 0 -i 14 -k RTR 
- -t 0.530000000 -s 0 -d 1 -p cbr -e 1020 -c 2 -a 0 -i 14 -k RTR
h -t 0.530000000 -s 0 -d 1 -p cbr -e 1020 -c 2 -a 0 -i 14 -k RTR
r -t 0.531732182 -s 1 -d 1 -p cbr -e 1020 -c 2 -a 0 -i 14 -k AGT
+ -t 0.550000000 -s 0 -d -1 -p cbr -e 1000 -c 2 -a 0 -i 15 -k AGT 
- -t 0.550000000 -s 0 -d -1 -p cbr -e 1000 -c 2 -a 0 -i 15 -k AGT
h -t 0.550000000 -s 0 -d -1 -p cbr -e 1000 -c 2 -a 0 -i 15 -k AGT
+ -t 0.550000000 -s 0 -d 1 -p cbr -e 1020 -c 2 -a 0 -i 15 -k RTR 
- -t 0.550000000 -s 0 -d 1 -p cbr -e 1020 -c 2 -a 0 -i 15 -k RTR
h -t 0.550000000 -s 0 -d 1 -p cbr -e 1020 -c 2 -a 0 -i 15 -k RTR
r -t 0.551732182 -s 1 -d 1 -p cbr -e 1020 -c 2 -a 0 -i 15 -k AGT
+ -t 0.570000000 -s 0 -d -1 -p cbr -e 1000 -c 2 -a 0 -i 16 -k AGT 
- -t 0.570000000 -s 0 -d -1 -p cbr -e 1000 -c 2 -a 0 -i 16 -k AGT
h -t 0.570000000 -s 0 -d -1 -p cbr -e 1000 -c 2 -a 0 -i 16 -k AGT
+ -t 0.570000000 -s 0 -d 1 -p cbr -e 1020 -c 2 -a 0 -i 16 -k RTR 
- -t 0.570000000 -s 0 -d 1 -p cbr -e 1020 -c 2 -a 0 -i 16 -k RTR
h -t 0.570000000 -s 0 -d 1 -p cbr -e 1020 -c 2 -a 0 -i 16 -k RTR
r -t 0.571732182 -s 1 -d 1 -p cbr -e 1020 -c 2 -a 0 -i 16 -k AGT
+ -t 0.590000000 -s 0 -d -1 -p cbr -e 1000 -c 2 -a 0 -i 17 -k AGT 
- -t 0.590000000 -s 0 -d -1 -p cbr -e 1000 -c 2 -a 0 -i 17 -k AGT
h -t 0.590000000 -s 0 -d -1 -p cbr -e 1000 -c 2 -a 0 -i 17 -k AGT
+ -t 0.590000000 -s 0 -d 1 -p cbr -e 1020 -c 2 -a 0 -i 17 -k RTR 
- -t 0.590000000 -s 0 -d 1 -p cbr -e 1020 -c 2 -a 0 -i 17 -k RTR
h -t 0.590000000 -s 0 -d 1 -p cbr -e 1020 -c 2 -a 0 -i 17 -k RTR
r -t 0.591732182 -s 1 -d 1 -p cbr -e 1020 -c 2 -a 0 -i 17 -k AGT
+ -t 0.610000000 -s 0 -d -1 -p cbr -e 1000 -c 2 -a 0 -i 18 -k AGT 
- -t 0.610000000 -s 0 -d -1 -p cbr -e 1000 -c 2 -a 0 -i 18 -k AGT
h -t 0.610000000 -s 0 -d -1 -p cbr -e 1000 -c 2 -a 0 -i 18 -k AGT
+ -t 0.610000000 -s 0 -d 1 -p cbr -e 1020 -c 2 -a 0 -i 18 -k RTR 
- -t 0.610000000 -s 0 -d 1 -p cbr -e 1020 -c 2 -a 0 -i 18 -k RTR
h -t 0.610000000 -s 0 -d 1 -p cbr -e 1020 -c 2 -a 0 -i 18 -k RTR
r -t 0.611732182 -s 1 -d 1 -p cbr -e 1020 -c 2 -a 0 -i 18 -k AGT
+ -t 0.630000000 -s 0 -d -1 -p cbr -e 1000 -c 2 -a 0 -i 19 -k AGT 
- -t 0.630000000 -s 0 -d -1 -p cbr -e 1000 -c 2 -a 0 -i 19 -k AGT
h -t 0.630000000 -s 0 -d -1 -p cbr -e 1000 -c 2 -a 0 -i 19 -k AGT
+ -t 0.630000000 -s 0 -d 1 -p cbr -e 1020 -c 2 -a 0 -i 19 -k RTR 
- -t 0.630000000 -s 0 -d 1 -p cbr -e 1020 -c 2 -a 0 -i 19 -k RTR
h -t 0.630000000 -s 0 -d 1 -p cbr -e 1020 -c 2 -a 0 -i 19 -k RTR
r -t 0.631732182 -s 1 -d 1 -p cbr -e 1020 -c 2 -a 0 -i 19 -k AGT
+ -t 0.650000000 -s 0 -d -1 -p cbr -e 1000 -c 2 -a 0 -i 20 -k AGT 
- -t 0.650000000 -s 0 -d -1 -p cbr -e 1000 -c 2 -a 0 -i 20 -k AGT
h -t 0.650000000 -s 0 -d -1 -p cbr -e 1000 -c 2 -a 0 -i 20 -k AGT
+ -t 0.650000000 -s 0 -d 1 -p cbr -e 1020 -c 2 -a 0 -i 20 -k RTR 
- -t 0.650000000 -s 0 -d 1 -p cbr -e 1020 -c 2 -a 0 -i 20 -k RTR
h -t 0.650000000 -s 0 -d 1 -p cbr -e 1020 -c 2 -a 0 -i 20 -k RTR
r -t 0.651732182 -s 1 -d 1 -p cbr -e 1020 -c 2 -a 0 -i 20 -k AGT
+ -t 0.670000000 -s 0 -d -1 -p cbr -e 1000 -c 2 -a 0 -i 21 -k AGT 
- -t 0.670000000 -s 0 -d -1 -p cbr -e 1000 -c 2 -a 0 -i 21 -k AGT
h -t 0.670000000 -s 0 -d -1 -p cbr -e 1000 -c 2 -a 0 -i 21 -k AGT
+ -t 0.670000000 -s 0 -d 1 -p cbr -e 1020 -c 2 -a 0 -i 21 -k RTR 
- -t 0.670000000 -s 0 -d 1 -p cbr -e 1020 -c 2 -a 0 -i 21 -k RTR
h -t 0.670000000 -s 0 -d 1 -p cbr -e 1020 -c 2 -a 0 -i 21 -k RTR
r -t 0.671732182 -s 1 -d 1 -p cbr -e 1020 -c 2 -a 0 -i 21 -k AGT
+ -t 0.690000000 -s 0 -d -1 -p cbr -e 1000 -c 2 -a 0 -i 22 -k AGT 
- -t 0.690000000 -s 0 -d -1 -p cbr -e 1000 -c 2 -a 0 -i 22 -k AGT
h -t 0.690000000 -s 0 -d -1 -p cbr -e 1000 -c 2 -a 0 -i 22 -k AGT
+ -t 0.690000000 -s 0 -d 1 -p cbr -e 1020 -c 2 -a 0 -i 22 -k RTR 
- -t 0.690000000 -s 0 -d 1 -p cbr -e 1020 -c 2 -a 0 -i 22 -k RTR
h -t 0.690000000 -s 0 -d 1 -p cbr -e 1020 -c 2 -a 0 -i 22 -k RTR
r -t 0.691732182 -s 1 -d 1 -p cbr -e 1020 -c 2 -a 0 -i 22 -k AGT
+ -t 0.710000000 -s 0 -d -1 -p cbr -e 1000 -c 2 -a 0 -i 23 -k AGT 
- -t 0.710000000 -s 0 -d -1 -p cbr -e 1000 -c 2 -a 0 -i 23 -k AGT
h -t 0.710000000 -s 0 -d -1 -p cbr -e 1000 -c 2 -a 0 -i 23 -k AGT
+ -t 0.710000000 -s 0 -d 1 -p cbr -e 1020 -c 2 -a 0 -i 23 -k RTR 
- -t 0.710000000 -s 0 -d 1 -p cbr -e 1020 -c 2 -a 0 -i 23 -k RTR
h -t 0.710000000 -s 0 -d 1 -p cbr -e 1020 -c 2 -a 0 -i 23 -k RTR
r -t 0.711732182 -s 1 -d 1 -p cbr -e 1020 -c 2 -a 0 -i 23 -k AGT
+ -t 0.730000000 -s 0 -d -1 -p cbr -e 1000 -c 2 -a 0 -i 24 -k AGT 
- -t 0.730000000 -s 0 -d -1 -p cbr -e 1000 -c 2 -a 0 -i 24 -k AGT
h -t 0.730000000 -s 0 -d -1 -p cbr -e 1000 -c 2 -a 0 -i 24 -k AGT
+ -t 0.730000000 -s 0 -d 1 -p cbr -e 1020 -c 2 -a 0 -i 24 -k RTR 
- -t 0.730000000 -s 0 -d 1 -p cbr -e 1020 -c 2 -a 0 -i 24 -k RTR
h -t 0.730000000 -s 0 -d 1 -p cbr -e 1020 -c 2 -a 0 -i 24 -k RTR
r -t 0.731732182 -s 1 -d 1 -p cbr -e 1020 -c 2 -a 0 -i 24 -k AGT
+ -t 0.750000000 -s 0 -d -1 -p cbr -e 1000 -c 2 -a 0 -i 25 -k AGT 
- -t 0.750000000 -s 0 -d -1 -p cbr -e 1000 -c 2 -a 0 -i 25 -k AGT
h -t 0.750000000 -s 0 -d -1 -p cbr -e 1000 -c 2 -a 0 -i 25 -k AGT
+ -t 0.750000000 -s 0 -d 1 -p cbr -e 1020 -c 2 -a 0 -i 25 -k RTR 
- -t 0.750000000 -s 0 -d 1 -p cbr -e 1020 -c 2 -a 0 -i 25 -k RTR
h -t 0.750000000 -s 0 -d 1 -p cbr -e 1020 -c 2 -a 0 -i 25 -k RTR
r -t 0.751732182 -s 1 -d 1 -p cbr -e 1020 -c 2 -a 0 -i 25 -k AGT
+ -t 0.770000000 -s 0 -d -1 -p cbr -e 1000 -c 2 -a 0 -i 26 -k AGT 
- -t 0.770000000 -s 0 -d -1 -p cbr -e 1000 -c 2 -a 0 -i 26 -k AGT
h -t 0.770000000 -s 0 -d -1 -p cbr -e 1000 -c 2 -a 0 -i 26 -k AGT
+ -t 0.770000000 -s 0 -d 1 -p cbr -e 1020 -c 2 -a 0 -i 26 -k RTR 
- -t 0.770000000 -s 0 -d 1 -p cbr -e 1020 -c 2 -a 0 -i 26 -k RTR
h -t 0.770000000 -s 0 -d 1 -p cbr -e 1020 -c 2 -a 0 -i 26 -k RTR
r -t 0.771732182 -s 1 -d 1 -p cbr -e 1020 -c 2 -a 0 -i 26 -k AGT
+ -t 0.790000000 -s 0 -d -1 -p cbr -e 1000 -c 2 -a 0 -i 27 -k AGT 
- -t 0.790000000 -s 0 -d -1 -p cbr -e 1000 -c 2 -a 0 -i 27 -k AGT
h -t 0.790000000 -s 0 -d -1 -p cbr -e 1000 -c 2 -a 0 -i 27 -k AGT
+ -t 0.790000000 -s 0 -d 1 -p cbr -e 1020 -c 2 -a 0 -i 27 -k RTR 
- -t 0.790000000 -s 0 -d 1 -p cbr -e 1020 -c 2 -a 0 -i 27 -k RTR
h -t 0.790000000 -s 0 -d 1 -p cbr -e 1020 -c 2 -a 0 -i 27 -k RTR
r -t 0.791732182 -s 1 -d 1 -p cbr -e 1020 -c 2 -a 0 -i 27 -k AGT
+ -t 0.810000000 -s 0 -d -1 -p cbr -e 1000 -c 2 -a 0 -i 28 -k AGT 
- -t 0.810000000 -s 0 -d -1 -p cbr -e 1000 -c 2 -a 0 -i 28 -k AGT
h -t 0.810000000 -s 0 -d -1 -p cbr -e 1000 -c 2 -a 0 -i 28 -k AGT
+ -t 0.810000000 -s 0 -d 1 -p cbr -e 1020 -c 2 -a 0 -i 28 -k RTR 
- -t 0.810000000 -s 0 -d 1 -p cbr -e 1020 -c 2 -a 0 -i 28 -k RTR
h -t 0.810000000 -s 0 -d 1 -p cbr -e 1020 -c 2 -a 0 -i 28 -k RTR
r -t 0.811732182 -s 1 -d 1 -p cbr -e 1020 -c 2 -a 0 -i 28 -k AGT
+ -t 0.830000000 -s 0 -d -1 -p cbr -e 1000 -c 2 -a 0 -i 29 -k AGT 
- -t 0.830000000 -s 0 -d -1 -p cbr -e 1000 -c 2 -a 0 -i 29 -k AGT
h -t 0.830000000 -s 0 -d -1 -p cbr -e 1000 -c 2 -a 0 -i 29 -k AGT
+ -t 0.830000000 -s 0 -d 1 -p cbr -e 1020 -c 2 -a 0 -i 29 -k RTR 
- -t 0.830000000 -s 0 -d 1 -p cbr -e 1020 -c 2 -a 0 -i 29 -k RTR
h -t 0.830000000 -s 0 -d 1 -p cbr -e 1020 -c 2 -a 0 -i 29 -k RTR
r -t 0.831732182 -s 1 -d 1 -p cbr -e 1020 -c 2 -a 0 -i 29 -k AGT
+ -t 0.850000000 -s 0 -d -1 -p cbr -e 1000 -c 2 -a 0 -i 30 -k AGT 
- -t 0.850000000 -s 0 -d -1 -p cbr -e 1000 -c 2 -a 0 -i 30 -k AGT
h -t 0.850000000 -s 0 -d -1 -p cbr -e 1000 -c 2 -a 0 -i 30 -k AGT
+ -t 0.850000000 -s 0 -d 1 -p cbr -e 1020 -c 2 -a 0 -i 30 -k RTR 
- -t 0.850000000 -s 0 -d 1 -p cbr -e 1020 -c 2 -a 0 -i 30 -k RTR
h -t 0.850000000 -s 0 -d 1 -p cbr -e 1020 -c 2 -a 0 -i 30 -k RTR
r -t 0.851732182 -s 1 -d 1 -p cbr -e 1020 -c 2 -a 0 -i 30 -k AGT
+ -t 0.870000000 -s 0 -d -1 -p cbr -e 1000 -c 2 -a 0 -i 31 -k AGT 
- -t 0.870000000 -s 0 -d -1 -p cbr -e 1000 -c 2 -a 0 -i 31 -k AGT
h -t 0.870000000 -s 0 -d -1 -p cbr -e 1000 -c 2 -a 0 -i 31 -k AGT
+ -t 0.870000000 -s 0 -d 1 -p cbr -e 1020 -c 2 -a 0 -i 31 -k RTR 
- -t 0.870000000 -s 0 -d 1 -p cbr -e 1020 -c 2 -a 0 -i 31 -k RTR
h -t 0.870000000 -s 0 -d 1 -p cbr -e 1020 -c 2 -a 0 -i 31 -k RTR
r -t 0.871732182 -s 1 -d 1 -p cbr -e 1020 -c 2 -a 0 -i 31 -k AGT
+ -t 0.890000000 -s 0 -d -1 -p cbr -e 1000 -c 2 -a 0 -i 32 -k AGT 
- -t 0.890000000 -s 0 -d -1 -p cbr -e 1000 -c 2 -a 0 -i 32 -k AGT
h -t 0.890000000 -s 0 -d -1 -p cbr -e 1000 -c 2 -a 0 -i 32 -k AGT
+ -t 0.890000000 -s 0 -d 1 -p cbr -e 1020 -c 2 -a 0 -i 32 -k RTR 
- -t 0.890000000 -s 0 -d 1 -p cbr -e 1020 -c 2 -a 0 -i 32 -k RTR
h -t 0.890000000 -s 0 -d 1 -p cbr -e 1020 -c 2 -a 0 -i 32 -k RTR
r -t 0.891732182 -s 1 -d 1 -p cbr -e 1020 -c 2 -a 0 -i 32 -k AGT
+ -t 0.910000000 -s 0 -d -1 -p cbr -e 1000 -c 2 -a 0 -i 33 -k AGT 
- -t 0.910000000 -s 0 -d -1 -p cbr -e 1000 -c 2 -a 0 -i 33 -k AGT
h -t 0.910000000 -s 0 -d -1 -p cbr -e 1000 -c 2 -a 0 -i 33 -k AGT
+ -t 0.910000000 -s 0 -d 1 -p cbr -e 1020 -c 2 -a 0 -i 33 -k RTR 
- -t 0.910000000 -s 0 -d 1 -p cbr -e 1020 -c 2 -a 0 -i 33 -k RTR
h -t 0.910000000 -s 0 -d 1 -p cbr -e 1020 -c 2 -a 0 -i 33 -k RTR
r -t 0.911732182 -s 1 -d 1 -p cbr -e 1020 -c 2 -a 0 -i 33 -k AGT
+ -t 0.930000000 -s 0 -d -1 -p cbr -e 1000 -c 2 -a 0 -i 34 -k AGT 
- -t 0.930000000 -s 0 -d -1 -p cbr -e 1000 -c 2 -a 0 -i 34 -k AGT
h -t 0.930000000 -s 0 -d -1 -p cbr -e 1000 -c 2 -a 0 -i 34 -k AGT
+ -t 0.930000000 -s 0 -d 1 -p cbr -e 1020 -c 2 -a 0 -i 34 -k RTR 
- -t 0.930000000 -s 0 -d 1 -p cbr -e 1020 -c 2 -a 0 -i 34 -k RTR
h -t 0.930000000 -s 0 -d 1 -p cbr -e 1020 -c 2 -a 0 -i 34 -k RTR
r -t 0.931732182 -s 1 -d 1 -p cbr -e 1020 -c 2 -a 0 -i 34 -k AGT
+ -t 0.950000000 -s 0 -d -1 -p cbr -e 1000 -c 2 -a 0 -i 35 -k AGT 
- -t 0.950000000 -s 0 -d -1 -p cbr -e 1000 -c 2 -a 0 -i 35 -k AGT
h -t 0.950000000 -s 0 -d -1 -p cbr -e 1000 -c 2 -a 0 -i 35 -k AGT
+ -t 0.950000000 -s 0 -d 1 -p cbr -e 1020 -c 2 -a 0 -i 35 -k RTR 
- -t 0.950000000 -s 0 -d 1 -p cbr -e 1020 -c 2 -a 0 -i 35 -k RTR
h -t 0.950000000 -s 0 -d 1 -p cbr -e 1020 -c 2 -a 0 -i 35 -k RTR
r -t 0.951732182 -s 1 -d 1 -p cbr -e 1020 -c 2 -a 0 -i 35 -k AGT
+ -t 0.970000000 -s 0 -d -1 -p cbr -e 1000 -c 2 -a 0 -i 36 -k AGT 
- -t 0.970000000 -s 0 -d -1 -p cbr -e 1000 -c 2 -a 0 -i 36 -k AGT
h -t 0.970000000 -s 0 -d -1 -p cbr -e 1000 -c 2 -a 0 -i 36 -k AGT
+ -t 0.970000000 -s 0 -d 1 -p cbr -e 1020 -c 2 -a 0 -i 36 -k RTR 
- -t 0.970000000 -s 0 -d 1 -p cbr -e 1020 -c 2 -a 0 -i 36 -k RTR
h -t 0.970000000 -s 0 -d 1 -p cbr -e 1020 -c 2 -a 0 -i 36 -k RTR
r -t 0.971732182 -s 1 -d 1 -p cbr -e 1020 -c 2 -a 0 -i 36 -k AGT
+ -t 0.990000000 -s 0 -d -1 -p cbr -e 1000 -c 2 -a 0 -i 37 -k AGT 
- -t 0.990000000 -s 0 -d -1 -p cbr -e 1000 -c 2 -a 0 -i 37 -k AGT
h -t 0.990000000 -s 0 -d -1 -p cbr -e 1000 -c 2 -a 0 -i 37 -k AGT
+ -t 0.990000000 -s 0 -d 1 -p cbr -e 1020 -c 2 -a 0 -i 37 -k RTR 
- -t 0.990000000 -s 0 -d 1 -p cbr -e 1020 -c 2 -a 0 -i 37 -k RTR
h -t 0.990000000 -s 0 -d 1 -p cbr -e 1020 -c 2 -a 0 -i 37 -k RTR
r -t 0.991732182 -s 1 -d 1 -p cbr -e 1020 -c 2 -a 0 -i 37 -k AGT
+ -t 1.010000000 -s 0 -d -1 -p cbr -e 1000 -c 2 -a 0 -i 38 -k AGT 
- -t 1.010000000 -s 0 -d -1 -p cbr -e 1000 -c 2 -a 0 -i 38 -k AGT
h -t 1.010000000 -s 0 -d -1 -p cbr -e 1000 -c 2 -a 0 -i 38 -k AGT
+ -t 1.010000000 -s 0 -d 1 -p cbr -e 1020 -c 2 -a 0 -i 38 -k RTR 
- -t 1.010000000 -s 0 -d 1 -p cbr -e 1020 -c 2 -a 0 -i 38 -k RTR
h -t 1.010000000 -s 0 -d 1 -p cbr -e 1020 -c 2 -a 0 -i 38 -k RTR
r -t 1.011732182 -s 1 -d 1 -p cbr -e 1020 -c 2 -a 0 -i 38 -k AGT
+ -t 1.030000000 -s 0 -d -1 -p cbr -e 1000 -c 2 -a 0 -i 39 -k AGT 
- -t 1.030000000 -s 0 -d -1 -p cbr -e 1000 -c 2 -a 0 -i 39 -k AGT
h -t 1.030000000 -s 0 -d -1 -p cbr -e 1000 -c 2 -a 0 -i 39 -k AGT
+ -t 1.030000000 -s 0 -d 1 -p cbr -e 1020 -c 2 -a 0 -i 39 -k RTR 
- -t 1.030000000 -s 0 -d 1 -p cbr -e 1020 -c 2 -a 0 -i 39 -k RTR
h -t 1.030000000 -s 0 -d 1 -p cbr -e 1020 -c 2 -a 0 -i 39 -k RTR
r -t 1.031732182 -s 1 -d 1 -p cbr -e 1020 -c 2 -a 0 -i 39 -k AGT
+ -t 1.050000000 -s 0 -d -1 -p cbr -e 1000 -c 2 -a 0 -i 40 -k AGT 
- -t 1.050000000 -s 0 -d -1 -p cbr -e 1000 -c 2 -a 0 -i 40 -k AGT
h -t 1.050000000 -s 0 -d -1 -p cbr -e 1000 -c 2 -a 0 -i 40 -k AGT
+ -t 1.050000000 -s 0 -d 1 -p cbr -e 1020 -c 2 -a 0 -i 40 -k RTR 
- -t 1.050000000 -s 0 -d 1 -p cbr -e 1020 -c 2 -a 0 -i 40 -k RTR
h -t 1.050000000 -s 0 -d 1 -p cbr -e 1020 -c 2 -a 0 -i 40 -k RTR
r -t 1.051732182 -s 1 -d 1 -p cbr -e 1020 -c 2 -a 0 -i 40 -k AGT
+ -t 1.070000000 -s 0 -d -1 -p cbr -e 1000 -c 2 -a 0 -i 41 -k AGT 
- -t 1.070000000 -s 0 -d -1 -p cbr -e 1000 -c 2 -a 0 -i 41 -k AGT
h -t 1.070000000 -s 0 -d -1 -p cbr -e 1000 -c 2 -a 0 -i 41 -k AGT
+ -t 1.070000000 -s 0 -d 1 -p cbr -e 1020 -c 2 -a 0 -i 41 -k RTR 
- -t 1.070000000 -s 0 -d 1 -p cbr -e 1020 -c 2 -a 0 -i 41 -k RTR
h -t 1.070000000 -s 0 -d 1 -p cbr -e 1020 -c 2 -a 0 -i 41 -k RTR
r -t 1.071732182 -s 1 -d 1 -p cbr -e 1020 -c 2 -a 0 -i 41 -k AGT
+ -t 1.090000000 -s 0 -d -1 -p cbr -e 1000 -c 2 -a 0 -i 42 -k AGT 
- -t 1.090000000 -s 0 -d -1 -p cbr -e 1000 -c 2 -a 0 -i 42 -k AGT
h -t 1.090000000 -s 0 -d -1 -p cbr -e 1000 -c 2 -a 0 -i 42 -k AGT
+ -t 1.090000000 -s 0 -d 1 -p cbr -e 1020 -c 2 -a 0 -i 42 -k RTR 
- -t 1.090000000 -s 0 -d 1 -p cbr -e 1020 -c 2 -a 0 -i 42 -k RTR
h -t 1.090000000 -s 0 -d 1 -p cbr -e 1020 -c 2 -a 0 -i 42 -k RTR
r -t 1.091732182 -s 1 -d 1 -p cbr -e 1020 -c 2 -a 0 -i 42 -k AGT
+ -t 1.110000000 -s 0 -d -1 -p cbr -e 1000 -c 2 -a 0 -i 43 -k AGT 
- -t 1.110000000 -s 0 -d -1 -p cbr -e 1000 -c 2 -a 0 -i 43 -k AGT
h -t 1.110000000 -s 0 -d -1 -p cbr -e 1000 -c 2 -a 0 -i 43 -k AGT
+ -t 1.110000000 -s 0 -d 1 -p cbr -e 1020 -c 2 -a 0 -i 43 -k RTR 
- -t 1.110000000 -s 0 -d 1 -p cbr -e 1020 -c 2 -a 0 -i 43 -k RTR
h -t 1.110000000 -s 0 -d 1 -p cbr -e 1020 -c 2 -a 0 -i 43 -k RTR
r -t 1.111732182 -s 1 -d 1 -p cbr -e 1020 -c 2 -a 0 -i 43 -k AGT
+ -t 1.130000000 -s 0 -d -1 -p cbr -e 1000 -c 2 -a 0 -i 44 -k AGT 
- -t 1.130000000 -s 0 -d -1 -p cbr -e 1000 -c 2 -a 0 -i 44 -k AGT
h -t 1.130000000 -s 0 -d -1 -p cbr -e 1000 -c 2 -a 0 -i 44 -k AGT
+ -t 1.130000000 -s 0 -d 1 -p cbr -e 1020 -c 2 -a 0 -i 44 -k RTR 
- -t 1.130000000 -s 0 -d 1 -p cbr -e 1020 -c 2 -a 0 -i 44 -k RTR
h -t 1.130000000 -s 0 -d 1 -p cbr -e 1020 -c 2 -a 0 -i 44 -k RTR
r -t 1.131732182 -s 1 -d 1 -p cbr -e 1020 -c 2 -a 0 -i 44 -k AGT
+ -t 1.150000000 -s 0 -d -1 -p cbr -e 1000 -c 2 -a 0 -i 45 -k AGT 
- -t 1.150000000 -s 0 -d -1 -p cbr -e 1000 -c 2 -a 0 -i 45 -k AGT
h -t 1.150000000 -s 0 -d -1 -p cbr -e 1000 -c 2 -a 0 -i 45 -k AGT
+ -t 1.150000000 -s 0 -d 1 -p cbr -e 1020 -c 2 -a 0 -i 45 -k RTR 
- -t 1.150000000 -s 0 -d 1 -p cbr -e 1020 -c 2 -a 0 -i 45 -k RTR
h -t 1.150000000 -s 0 -d 1 -p cbr -e 1020 -c 2 -a 0 -i 45 -k RTR
r -t 1.151732182 -s 1 -d 1 -p cbr -e 1020 -c 2 -a 0 -i 45 -k AGT
+ -t 1.170000000 -s 0 -d -1 -p cbr -e 1000 -c 2 -a 0 -i 46 -k AGT 
- -t 1.170000000 -s 0 -d -1 -p cbr -e 1000 -c 2 -a 0 -i 46 -k AGT
h -t 1.170000000 -s 0 -d -1 -p cbr -e 1000 -c 2 -a 0 -i 46 -k AGT
+ -t 1.170000000 -s 0 -d 1 -p cbr -e 1020 -c 2 -a 0 -i 46 -k RTR 
- -t 1.170000000 -s 0 -d 1 -p cbr -e 1020 -c 2 -a 0 -i 46 -k RTR
h -t 1.170000000 -s 0 -d 1 -p cbr -e 1020 -c 2 -a 0 -i 46 -k RTR
r -t 1.171732182 -s 1 -d 1 -p cbr -e 1020 -c 2 -a 0 -i 46 -k AGT
+ -t 1.190000000 -s 0 -d -1 -p cbr -e 1000 -c 2 -a 0 -i 47 -k AGT 
- -t 1.190000000 -s 0 -d -1 -p cbr -e 1000 -c 2 -a 0 -i 47 -k AGT
h -t 1.190000000 -s 0 -d -1 -p cbr -e 1000 -c 2 -a 0 -i 47 -k AGT
+ -t 1.190000000 -s 0 -d 1 -p cbr -e 1020 -c 2 -a 0 -i 47 -k RTR 
- -t 1.190000000 -s 0 -d 1 -p cbr -e 1020 -c 2 -a 0 -i 47 -k RTR
h -t 1.190000000 -s 0 -d 1 -p cbr -e 1020 -c 2 -a 0 -i 47 -k RTR
r -t 1.191732182 -s 1 -d 1 -p cbr -e 1020 -c 2 -a 0 -i 47 -k AGT
+ -t 1.210000000 -s 0 -d -1 -p cbr -e 1000 -c 2 -a 0 -i 48 -k AGT 
- -t 1.210000000 -s 0 -d -1 -p cbr -e 1000 -c 2 -a 0 -i 48 -k AGT
h -t 1.210000000 -s 0 -d -1 -p cbr -e 1000 -c 2 -a 0 -i 48 -k AGT
+ -t 1.210000000 -s 0 -d 1 -p cbr -e 1020 -c 2 -a 0 -i 48 -k RTR 
- -t 1.210000000 -s 0 -d 1 -p cbr -e 1020 -c 2 -a 0 -i 48 -k RTR
h -t 1.210000000 -s 0 -d 1 -p cbr -e 1020 -c 2 -a 0 -i 48 -k RTR
r -t 1.211732182 -s 1 -d 1 -p cbr -e 1020 -c 2 -a 0 -i 48 -k AGT
+ -t 1.230000000 -s 0 -d -1 -p cbr -e 1000 -c 2 -a 0 -i 49 -k AGT 
- -t 1.230000000 -s 0 -d -1 -p cbr -e 1000 -c 2 -a 0 -i 49 -k AGT
h -t 1.230000000 -s 0 -d -1 -p cbr -e 1000 -c 2 -a 0 -i 49 -k AGT
+ -t 1.230000000 -s 0 -d 1 -p cbr -e 1020 -c 2 -a 0 -i 49 -k RTR 
- -t 1.230000000 -s 0 -d 1 -p cbr -e 1020 -c 2 -a 0 -i 49 -k RTR
h -t 1.230000000 -s 0 -d 1 -p cbr -e 1020 -c 2 -a 0 -i 49 -k RTR
r -t 1.231732182 -s 1 -d 1 -p cbr -e 1020 -c 2 -a 0 -i 49 -k AGT
+ -t 1.250000000 -s 0 -d -1 -p cbr -e 1000 -c 2 -a 0 -i 50 -k AGT 
- -t 1.250000000 -s 0 -d -1 -p cbr -e 1000 -c 2 -a 0 -i 50 -k AGT
h -t 1.250000000 -s 0 -d -1 -p cbr -e 1000 -c 2 -a 0 -i 50 -k AGT
+ -t 1.250000000 -s 0 -d 1 -p cbr -e 1020 -c 2 -a 0 -i 50 -k RTR 
- -t 1.250000000 -s 0 -d 1 -p cbr -e 1020 -c 2 -a 0 -i 50 -k RTR
h -t 1.250000000 -s 0 -d 1 -p cbr -e 1020 -c 2 -a 0 -i 50 -k RTR
r -t 1.251732182 -s 1 -d 1 -p cbr -e 1020 -c 2 -a 0 -i 50 -k AGT
+ -t 1.270000000 -s 0 -d -1 -p cbr -e 1000 -c 2 -a 0 -i 51 -k AGT 
- -t 1.270000000 -s 0 -d -1 -p cbr -e 1000 -c 2 -a 0 -i 51 -k AGT
h -t 1.270000000 -s 0 -d -1 -p cbr -e 1000 -c 2 -a 0 -i 51 -k AGT
+ -t 1.270000000 -s 0 -d 1 -p cbr -e 1020 -c 2 -a 0 -i 51 -k RTR 
- -t 1.270000000 -s 0 -d 1 -p cbr -e 1020 -c 2 -a 0 -i 51 -k RTR
h -t 1.270000000 -s 0 -d 1 -p cbr -e 1020 -c 2 -a 0 -i 51 -k RTR
r -t 1.271732182 -s 1 -d 1 -p cbr -e 1020 -c 2 -a 0 -i 51 -k AGT
+ -t 1.290000000 -s 0 -d -1 -p cbr -e 1000 -c 2 -a 0 -i 52 -k AGT 
- -t 1.290000000 -s 0 -d -1 -p cbr -e 1000 -c 2 -a 0 -i 52 -k AGT
h -t 1.290000000 -s 0 -d -1 -p cbr -e 1000 -c 2 -a 0 -i 52 -k AGT
+ -t 1.290000000 -s 0 -d 1 -p cbr -e 1020 -c 2 -a 0 -i 52 -k RTR 
- -t 1.290000000 -s 0 -d 1 -p cbr -e 1020 -c 2 -a 0 -i 52 -k RTR
h -t 1.290000000 -s 0 -d 1 -p cbr -e 1020 -c 2 -a 0 -i 52 -k RTR
r -t 1.291732182 -s 1 -d 1 -p cbr -e 1020 -c 2 -a 0 -i 52 -k AGT
+ -t 1.310000000 -s 0 -d -1 -p cbr -e 1000 -c 2 -a 0 -i 53 -k AGT 
- -t 1.310000000 -s 0 -d -1 -p cbr -e 1000 -c 2 -a 0 -i 53 -k AGT
h -t 1.310000000 -s 0 -d -1 -p cbr -e 1000 -c 2 -a 0 -i 53 -k AGT
+ -t 1.310000000 -s 0 -d 1 -p cbr -e 1020 -c 2 -a 0 -i 53 -k RTR 
- -t 1.310000000 -s 0 -d 1 -p cbr -e 1020 -c 2 -a 0 -i 53 -k RTR
h -t 1.310000000 -s 0 -d 1 -p cbr -e 1020 -c 2 -a 0 -i 53 -k RTR
r -t 1.311732182 -s 1 -d 1 -p cbr -e 1020 -c 2 -a 0 -i 53 -k AGT
+ -t 1.330000000 -s 0 -d -1 -p cbr -e 1000 -c 2 -a 0 -i 54 -k AGT 
- -t 1.330000000 -s 0 -d -1 -p cbr -e 1000 -c 2 -a 0 -i 54 -k AGT
h -t 1.330000000 -s 0 -d -1 -p cbr -e 1000 -c 2 -a 0 -i 54 -k AGT
+ -t 1.330000000 -s 0 -d 1 -p cbr -e 1020 -c 2 -a 0 -i 54 -k RTR 
- -t 1.330000000 -s 0 -d 1 -p cbr -e 1020 -c 2 -a 0 -i 54 -k RTR
h -t 1.330000000 -s 0 -d 1 -p cbr -e 1020 -c 2 -a 0 -i 54 -k RTR
r -t 1.331732182 -s 1 -d 1 -p cbr -e 1020 -c 2 -a 0 -i 54 -k AGT
+ -t 1.350000000 -s 0 -d -1 -p cbr -e 1000 -c 2 -a 0 -i 55 -k AGT 
- -t 1.350000000 -s 0 -d -1 -p cbr -e 1000 -c 2 -a 0 -i 55 -k AGT
h -t 1.350000000 -s 0 -d -1 -p cbr -e 1000 -c 2 -a 0 -i 55 -k AGT
+ -t 1.350000000 -s 0 -d 1 -p cbr -e 1020 -c 2 -a 0 -i 55 -k RTR 
- -t 1.350000000 -s 0 -d 1 -p cbr -e 1020 -c 2 -a 0 -i 55 -k RTR
h -t 1.350000000 -s 0 -d 1 -p cbr -e 1020 -c 2 -a 0 -i 55 -k RTR
r -t 1.351732182 -s 1 -d 1 -p cbr -e 1020 -c 2 -a 0 -i 55 -k AGT
+ -t 1.370000000 -s 0 -d -1 -p cbr -e 1000 -c 2 -a 0 -i 56 -k AGT 
- -t 1.370000000 -s 0 -d -1 -p cbr -e 1000 -c 2 -a 0 -i 56 -k AGT
h -t 1.370000000 -s 0 -d -1 -p cbr -e 1000 -c 2 -a 0 -i 56 -k AGT
+ -t 1.370000000 -s 0 -d 1 -p cbr -e 1020 -c 2 -a 0 -i 56 -k RTR 
- -t 1.370000000 -s 0 -d 1 -p cbr -e 1020 -c 2 -a 0 -i 56 -k RTR
h -t 1.370000000 -s 0 -d 1 -p cbr -e 1020 -c 2 -a 0 -i 56 -k RTR
r -t 1.371732182 -s 1 -d 1 -p cbr -e 1020 -c 2 -a 0 -i 56 -k AGT
+ -t 1.390000000 -s 0 -d -1 -p cbr -e 1000 -c 2 -a 0 -i 57 -k AGT 
- -t 1.390000000 -s 0 -d -1 -p cbr -e 1000 -c 2 -a 0 -i 57 -k AGT
h -t 1.390000000 -s 0 -d -1 -p cbr -e 1000 -c 2 -a 0 -i 57 -k AGT
+ -t 1.390000000 -s 0 -d 1 -p cbr -e 1020 -c 2 -a 0 -i 57 -k RTR 
- -t 1.390000000 -s 0 -d 1 -p cbr -e 1020 -c 2 -a 0 -i 57 -k RTR
h -t 1.390000000 -s 0 -d 1 -p cbr -e 1020 -c 2 -a 0 -i 57 -k RTR
r -t 1.391732182 -s 1 -d 1 -p cbr -e 1020 -c 2 -a 0 -i 57 -k AGT
+ -t 1.410000000 -s 0 -d -1 -p cbr -e 1000 -c 2 -a 0 -i 58 -k AGT 
- -t 1.410000000 -s 0 -d -1 -p cbr -e 1000 -c 2 -a 0 -i 58 -k AGT
h -t 1.410000000 -s 0 -d -1 -p cbr -e 1000 -c 2 -a 0 -i 58 -k AGT
+ -t 1.410000000 -s 0 -d 1 -p cbr -e 1020 -c 2 -a 0 -i 58 -k RTR 
- -t 1.410000000 -s 0 -d 1 -p cbr -e 1020 -c 2 -a 0 -i 58 -k RTR
h -t 1.410000000 -s 0 -d 1 -p cbr -e 1020 -c 2 -a 0 -i 58 -k RTR
r -t 1.411732182 -s 1 -d 1 -p cbr -e 1020 -c 2 -a 0 -i 58 -k AGT
+ -t 1.430000000 -s 0 -d -1 -p cbr -e 1000 -c 2 -a 0 -i 59 -k AGT 
- -t 1.430000000 -s 0 -d -1 -p cbr -e 1000 -c 2 -a 0 -i 59 -k AGT
h -t 1.430000000 -s 0 -d -1 -p cbr -e 1000 -c 2 -a 0 -i 59 -k AGT
+ -t 1.430000000 -s 0 -d 1 -p cbr -e 1020 -c 2 -a 0 -i 59 -k RTR 
- -t 1.430000000 -s 0 -d 1 -p cbr -e 1020 -c 2 -a 0 -i 59 -k RTR
h -t 1.430000000 -s 0 -d 1 -p cbr -e 1020 -c 2 -a 0 -i 59 -k RTR
r -t 1.431732182 -s 1 -d 1 -p cbr -e 1020 -c 2 -a 0 -i 59 -k AGT
+ -t 1.450000000 -s 0 -d -1 -p cbr -e 1000 -c 2 -a 0 -i 60 -k AGT 
- -t 1.450000000 -s 0 -d -1 -p cbr -e 1000 -c 2 -a 0 -i 60 -k AGT
h -t 1.450000000 -s 0 -d -1 -p cbr -e 1000 -c 2 -a 0 -i 60 -k AGT
+ -t 1.450000000 -s 0 -d 1 -p cbr -e 1020 -c 2 -a 0 -i 60 -k RTR 
- -t 1.450000000 -s 0 -d 1 -p cbr -e 1020 -c 2 -a 0 -i 60 -k RTR
h -t 1.450000000 -s 0 -d 1 -p cbr -e 1020 -c 2 -a 0 -i 60 -k RTR
r -t 1.451732182 -s 1 -d 1 -p cbr -e 1020 -c 2 -a 0 -i 60 -k AGT
+ -t 1.470000000 -s 0 -d -1 -p cbr -e 1000 -c 2 -a 0 -i 61 -k AGT 
- -t 1.470000000 -s 0 -d -1 -p cbr -e 1000 -c 2 -a 0 -i 61 -k AGT
h -t 1.470000000 -s 0 -d -1 -p cbr -e 1000 -c 2 -a 0 -i 61 -k AGT
+ -t 1.470000000 -s 0 -d 1 -p cbr -e 1020 -c 2 -a 0 -i 61 -k RTR 
- -t 1.470000000 -s 0 -d 1 -p cbr -e 1020 -c 2 -a 0 -i 61 -k RTR
h -t 1.470000000 -s 0 -d 1 -p cbr -e 1020 -c 2 -a 0 -i 61 -k RTR
r -t 1.471732182 -s 1 -d 1 -p cbr -e 1020 -c 2 -a 0 -i 61 -k AGT
+ -t 1.490000000 -s 0 -d -1 -p cbr -e 1000 -c 2 -a 0 -i 62 -k AGT 
- -t 1.490000000 -s 0 -d -1 -p cbr -e 1000 -c 2 -a 0 -i 62 -k AGT
h -t 1.490000000 -s 0 -d -1 -p cbr -e 1000 -c 2 -a 0 -i 62 -k AGT
+ -t 1.490000000 -s 0 -d 1 -p cbr -e 1020 -c 2 -a 0 -i 62 -k RTR 
- -t 1.490000000 -s 0 -d 1 -p cbr -e 1020 -c 2 -a 0 -i 62 -k RTR