s 0.250000000 _0_ AGT  --- 0 cbr 1000 [0 0 0 0] ------- [0:0 1:0 32 0] [0] 0 0
r 0.250000000 _0_ RTR  --- 0 cbr 1000 [0 0 0 0] ------- [0:0 1:0 32 0] [0] 0 0
s 0.250000000 _0_ RTR  --- 0 AODV 48 [0 0 0 0] ------- [0:255 -1:255 30 0] [0x2 1 1 [1 0] [0 4]] (REQUEST)
r 0.250900667 _1_ RTR  --- 0 AODV 48 [0 ffffffff 0 800] ------- [0:255 -1:255 30 0] [0x2 1 1 [1 0] [0 4]] (REQUEST)
s 0.250900667 _1_ RTR  --- 0 AODV 44 [0 0 0 0] ------- [1:255 0:255 30 0] [0x4 1 [1 2] 10.000000] (REPLY)
r 0.254308424 _0_ RTR  --- 0 AODV 44 [13a 0 1 800] ------- [1:255 0:255 30 0] [0x4 1 [1 2] 10.000000] (REPLY)
s 0.254308424 _0_ RTR  --- 0 cbr 1020 [0 0 0 0] ------- [0:0 1:0 30 1] [0] 0 0
r 0.256864606 _1_ AGT  --- 0 cbr 1020 [13a 1 0 800] ------- [0:0 1:0 30 1] [0] 1 0
s 0.270000000 _0_ AGT  --- 1 cbr 1000 [0 0 0 0] ------- [0:0 1:0 32 0] [1] 0 0
r 0.270000000 _0_ RTR  --- 1 cbr 1000 [0 0 0 0] ------- [0:0 1:0 32 0] [1] 0 0
s 0.270000000 _0_ RTR  --- 1 cbr 1020 [0 0 0 0] ------- [0:0 1:0 30 1] [1] 0 0
r 0.271732182 _1_ AGT  --- 1 cbr 1020 [13a 1 0 800] ------- [0:0 1:0 30 1] [1] 1 0
s 0.290000000 _0_ AGT  --- 2 cbr 1000 [0 0 0 0] ------- [0:0 1:0 32 0] [2] 0 0
r 0.290000000 _0_ RTR  --- 2 cbr 1000 [0 0 0 0] ------- [0:0 1:0 32 0] [2] 0 0
s 0.290000000 _0_ RTR  --- 2 cbr 1020 [0 0 0 0] ------- [0:0 1:0 30 1] [2] 0 0
r 0.291732182 _1_ AGT  --- 2 cbr 1020 [13a 1 0 800] ------- [0:0 1:0 30 1] [2] 1 0
s 0.310000000 _0_ AGT  --- 3 cbr 1000 [0 0 0 0] ------- [0:0 1:0 32 0] [3] 0 0
r 0.310000000 _0_ RTR  --- 3 cbr 1000 [0 0 0 0] ------- [0:0 1:0 32 0] [3] 0 0
s 0.310000000 _0_ RTR  --- 3 cbr 1020 [0 0 0 0] ------- [0:0 1:0 30 1] [3] 0 0
r 0.311732182 _1_ AGT  --- 3 cbr 1020 [13a 1 0 800] ------- [0:0 1:0 30 1] [3] 1 0
s 0.330000000 _0_ AGT  --- 4 cbr 1000 [0 0 0 0] ------- [0:0 1:0 32 0] [4] 0 0
r 0.330000000 _0_ RTR  --- 4 cbr 1000 [0 0 0 0] ------- [0:0 1:0 32 0] [4] 0 0
s 0.330000000 _0_ RTR  --- 4 cbr 1020 [0 0 0 0] ------- [0:0 1:0 30 1] [4] 0 0
r 0.331732182 _1_ AGT  --- 4 cbr 1020 [13a 1 0 800] ------- [0:0 1:0 30 1] [4] 1 0
s 0.350000000 _0_ AGT  --- 5 cbr 1000 [0 0 0 0] ------- [0:0 1:0 32 0] [5] 0 0
r 0.350000000 _0_ RTR  --- 5 cbr 1000 [0 0 0 0] ------- [0:0 1:0 32 0] [5] 0 0
s 0.350000000 _0_ RTR  --- 5 cbr 1020 [0 0 0 0] ------- [0:0 1:0 30 1] [5] 0 0
r 0.351732182 _1_ AGT  --- 5 cbr 1020 [13a 1 0 800] ------- [0:0 1:0 30 1] [5] 1 0
s 0.370000000 _0_ AGT  --- 6 cbr 1000 [0 0 0 0] ------- [0:0 1:0 32 0] [6] 0 0
r 0.370000000 _0_ RTR  --- 6 cbr 1000 [0 0 0 0] ------- [0:0 1:0 32 0] [6] 0 0
s 0.370000000 _0_ RTR  --- 6 cbr 1020 [0 0 0 0] ------- [0:0 1:0 30 1] [6] 0 0
r 0.371732182 _1_ AGT  --- 6 cbr 1020 [13a 1 0 800] ------- [0:0 1:0 30 1] [6] 1 0
s 0.390000000 _0_ AGT  --- 7 cbr 1000 [0 0 0 0] ------- [0:0 1:0 32 0] [7] 0 0
r 0.390000000 _0_ RTR  --- 7 cbr 1000 [0 0 0 0] ------- [0:0 1:0 32 0] [7] 0 0
s 0.390000000 _0_ RTR  --- 7 cbr 1020 [0 0 0 0] ------- [0:0 1:0 30 1] [7] 0 0
r 0.391732182 _1_ AGT  --- 7 cbr 1020 [13a 1 0 800] ------- [0:0 1:0 30 1] [7] 1 0
s 0.410000000 _0_ AGT  --- 8 cbr 1000 [0 0 0 0] ------- [0:0 1:0 32 0] [8] 0 0
r 0.410000000 _0_ RTR  --- 8 cbr 1000 [0 0 0 0] ------- [0:0 1:0 32 0] [8] 0 0
s 0.410000000 _0_ RTR  --- 8 cbr 1020 [0 0 0 0] ------- [0:0 1:0 30 1] [8] 0 0
r 0.411732182 _1_ AGT  --- 8 cbr 1020 [13a 1 0 800] ------- [0:0 1:0 30 1] [8] 1 0
s 0.430000000 _0_ AGT  --- 9 cbr 1000 [0 0 0 0] ------- [0:0 1:0 32 0] [9] 0 0
r 0.430000000 _0_ RTR  --- 9 cbr 1000 [0 0 0 0] ------- [0:0 1:0 32 0] [9] 0 0
s 0.430000000 _0_ RTR  --- 9 cbr 1020 [0 0 0 0] ------- [0:0 1:0 30 1] [9] 0 0
r 0.431732182 _1_ AGT  --- 9 cbr 1020 [13a 1 0 800] ------- [0:0 1:0 30 1] [9] 1 0
s 0.450000000 _0_ AGT  --- 10 cbr 1000 [0 0 0 0] ------- [0:0 1:0 32 0] [10] 0 0
r 0.450000000 _0_ RTR  --- 10 cbr 1000 [0 0 0 0] ------- [0:0 1:0 32 0] [10] 0 0
s 0.450000000 _0_ RTR  --- 10 cbr 1020 [0 0 0 0] ------- [0:0 1:0 30 1] [10] 0 0
r 0.451732182 _1_ AGT  --- 10 cbr 1020 [13a 1 0 800] ------- [0:0 1:0 30 1] [10] 1 0
s 0.470000000 _0_ AGT  --- 11 cbr 1000 [0 0 0 0] ------- [0:0 1:0 32 0] [11] 0 0
r 0.470000000 _0_ RTR  --- 11 cbr 1000 [0 0 0 0] ------- [0:0 1:0 32 0] [11] 0 0
s 0.470000000 _0_ RTR  --- 11 cbr 1020 [0 0 0 0] ------- [0:0 1:0 30 1] [11] 0 0
r 0.471732182 _1_ AGT  --- 11 cbr 1020 [13a 1 0 800] ------- [0:0 1:0 30 1] [11] 1 0
s 0.490000000 _0_ AGT  --- 12 cbr 1000 [0 0 0 0] ------- [0:0 1:0 32 0] [12] 0 0
r 0.490000000 _0_ RTR  --- 12 cbr 1000 [0 0 0 0] ------- [0:0 1:0 32 0] [12] 0 0
s 0.490000000 _0_ RTR  --- 12 cbr 1020 [0 0 0 0] ------- [0:0 1:0 30 1] [12] 0 0
r 0.491732182 _1_ AGT  --- 12 cbr 1020 [13a 1 0 800] ------- [0:0 1:0 30 1] [12] 1 0
s 0.510000000 _0_ AGT  --- 13 cbr 1000 [0 0 0 0] ------- [0:0 1:0 32 0] [13] 0 0
r 0.510000000 _0_ RTR  --- 13 cbr 1000 [0 0 0 0] ------- [0:0 1:0 32 0] [13] 0 0
s 0.510000000 _0_ RTR  --- 13 cbr 1020 [0 0 0 0] ------- [0:0 1:0 30 1] [13] 0 0
r 0.511732182 _1_ AGT  --- 13 cbr 1020 [13a 1 0 800] ------- [0:0 1:0 30 1] [13] 1 0
s 0.530000000 _0_ AGT  --- 14 cbr 1000 [0 0 0 0] ------- [0:0 1:0 32 0] [14] 0 0
r 0.530000000 _0_ RTR  --- 14 cbr 1000 [0 0 0 0] ------- [0:0 1:0 32 0] [14] 0 0
s 0.530000000 _0_ RTR  --- 14 cbr 1020 [0 0 0 0] ------- [0:0 1:0 30 1] [14] 0 0
r 0.531732182 _1_ AGT  --- 14 cbr 1020 [13a 1 0 800] ------- [0:0 1:0 30 1] [14] 1 0
s 0.550000000 _0_ AGT  --- 15 cbr 1000 [0 0 0 0] ------- [0:0 1:0 32 0] [15] 0 0
r 0.550000000 _0_ RTR  --- 15 cbr 1000 [0 0 0 0] ------- [0:0 1:0 32 0] [15] 0 0
s 0.550000000 _0_ RTR  --- 15 cbr 1020 [0 0 0 0] ------- [0:0 1:0 30 1] [15] 0 0
r 0.551732182 _1_ AGT  --- 15 cbr 1020 [13a 1 0 800] ------- [0:0 1:0 30 1] [15] 1 0
s 0.570000000 _0_ AGT  --- 16 cbr 1000 [0 0 0 0] ------- [0:0 1:0 32 0] [16] 0 0
r 0.570000000 _0_ RTR  --- 16 cbr 1000 [0 0 0 0] ------- [0:0 1:0 32 0] [16] 0 0
s 0.570000000 _0_ RTR  --- 16 cbr 1020 [0 0 0 0] ------- [0:0 1:0 30 1] [16] 0 0
r 0.571732182 _1_ AGT  --- 16 cbr 1020 [13a 1 0 800] ------- [0:0 1:0 30 1] [16] 1 0
s 0.590000000 _0_ AGT  --- 17 cbr 1000 [0 0 0 0] ------- [0:0 1:0 32 0] [17] 0 0
r 0.590000000 _0_ RTR  --- 17 cbr 1000 [0 0 0 0] ------- [0:0 1:0 32 0] [17] 0 0
s 0.590000000 _0_ RTR  --- 17 cbr 1020 [0 0 0 0] ------- [0:0 1:0 30 1] [17] 0 0
r 0.591732182 _1_ AGT  --- 17 cbr 1020 [13a 1 0 800] ------- [0:0 1:0 30 1] [17] 1 0
s 0.610000000 _0_ AGT  --- 18 cbr 1000 [0 0 0 0] ------- [0:0 1:0 32 0] [18] 0 0
r 0.610000000 _0_ RTR  --- 18 cbr 1000 [0 0 0 0] ------- [0:0 1:0 32 0] [18] 0 0
s 0.610000000 _0_ RTR  --- 18 cbr 1020 [0 0 0 0] ------- [0:0 1:0 30 1] [18] 0 0
r 0.611732182 _1_ AGT  --- 18 cbr 1020 [13a 1 0 800] ------- [0:0 1:0 30 1] [18] 1 0
s 0.630000000 _0_ AGT  --- 19 cbr 1000 [0 0 0 0] ------- [0:0 1:0 32 0] [19] 0 0
r 0.630000000 _0_ RTR  --- 19 cbr 1000 [0 0 0 0] ------- [0:0 1:0 32 0] [19] 0 0
s 0.630000000 _0_ RTR  --- 19 cbr 1020 [0 0 0 0] ------- [0:0 1:0 30 1] [19] 0 0
r 0.631732182 _1_ AGT  --- 19 cbr 1020 [13a 1 0 800] ------- [0:0 1:0 30 1] [19] 1 0
s 0.650000000 _0_ AGT  --- 20 cbr 1000 [0 0 0 0] ------- [0:0 1:0 32 0] [20] 0 0
r 0.650000000 _0_ RTR  --- 20 cbr 1000 [0 0 0 0] ------- [0:0 1:0 32 0] [20] 0 0
s 0.650000000 _0_ RTR  --- 20 cbr 1020 [0 0 0 0] ------- [0:0 1:0 30 1] [20] 0 0
r 0.651732182 _1_ AGT  --- 20 cbr 1020 [13a 1 0 800] ------- [0:0 1:0 30 1] [20] 1 0
s 0.670000000 _0_ AGT  --- 21 cbr 1000 [0 0 0 0] ------- [0:0 1:0 32 0] [21] 0 0
r 0.670000000 _0_ RTR  --- 21 cbr 1000 [0 0 0 0] ------- [0:0 1:0 32 0] [21] 0 0
s 0.670000000 _0_ RTR  --- 21 cbr 1020 [0 0 0 0] ------- [0:0 1:0 30 1] [21] 0 0
r 0.671732182 _1_ AGT  --- 21 cbr 1020 [13a 1 0 800] ------- [0:0 1:0 30 1] [21] 1 0
s 0.690000000 _0_ AGT  --- 22 cbr 1000 [0 0 0 0] ------- [0:0 1:0 32 0] [22] 0 0
r 0.690000000 _0_ RTR  --- 22 cbr 1000 [0 0 0 0] ------- [0:0 1:0 32 0] [22] 0 0
s 0.690000000 _0_ RTR  --- 22 cbr 1020 [0 0 0 0] ------- [0:0 1:0 30 1] [22] 0 0
r 0.691732182 _1_ AGT  --- 22 cbr 1020 [13a 1 0 800] ------- [0:0 1:0 30 1] [22] 1 0
s 0.710000000 _0_ AGT  --- 23 cbr 1000 [0 0 0 0] ------- [0:0 1:0 32 0] [23] 0 0
r 0.710000000 _0_ RTR  --- 23 cbr 1000 [0 0 0 0] ------- [0:0 1:0 32 0] [23] 0 0
s 0.710000000 _0_ RTR  --- 23 cbr 1020 [0 0 0 0] ------- [0:0 1:0 30 1] [23] 0 0
r 0.711732182 _1_ AGT  --- 23 cbr 1020 [13a 1 0 800] ------- [0:0 1:0 30 1] [23] 1 0
s 0.730000000 _0_ AGT  --- 24 cbr 1000 [0 0 0 0] ------- [0:0 1:0 32 0] [24] 0 0
r 0.730000000 _0_ RTR  --- 24 cbr 1000 [0 0 0 0] ------- [0:0 1:0 32 0] [24] 0 0
s 0.730000000 _0_ RTR  --- 24 cbr 1020 [0 0 0 0] ------- [0:0 1:0 30 1] [24] 0 0
r 0.731732182 _1_ AGT  --- 24 cbr 1020 [13a 1 0 800] ------- [0:0 1:0 30 1] [24] 1 0
s 0.750000000 _0_ AGT  --- 25 cbr 1000 [0 0 0 0] ------- [0:0 1:0 32 0] [25] 0 0
r 0.750000000 _0_ RTR  --- 25 cbr 1000 [0 0 0 0] ------- [0:0 1:0 32 0] [25] 0 0
s 0.750000000 _0_ RTR  --- 25 cbr 1020 [0 0 0 0] ------- [0:0 1:0 30 1] [25] 0 0
r 0.751732182 _1_ AGT  --- 25 cbr 1020 [13a 1 0 800] ------- [0:0 1:0 30 1] [25] 1 0
s 0.770000000 _0_ AGT  --- 26 cbr 1000 [0 0 0 0] ------- [0:0 1:0 32 0] [26] 0 0
r 0.770000000 _0_ RTR  --- 26 cbr 1000 [0 0 0 0] ------- [0:0 1:0 32 0] [26] 0 0
s 0.770000000 _0_ RTR  --- 26 cbr 1020 [0 0 0 0] ------- [0:0 1:0 30 1] [26] 0 0
r 0.771732182 _1_ AGT  --- 26 cbr 1020 [13a 1 0 800] ------- [0:0 1:0 30 1] [26] 1 0
s 0.790000000 _0_ AGT  --- 27 cbr 1000 [0 0 0 0] ------- [0:0 1:0 32 0] [27] 0 0
r 0.790000000 _0_ RTR  --- 27 cbr 1000 [0 0 0 0] ------- [0:0 1:0 32 0] [27] 0 0
s 0.790000000 _0_ RTR  --- 27 cbr 1020 [0 0 0 0] ------- [0:0 1:0 30 1] [27] 0 0
r 0.791732182 _1_ AGT  --- 27 cbr 1020 [13a 1 0 800] ------- [0:0 1:0 30 1] [27] 1 0
s 0.810000000 _0_ AGT  --- 28 cbr 1000 [0 0 0 0] ------- [0:0 1:0 32 0] [28] 0 0
r 0.810000000 _0_ RTR  --- 28 cbr 1000 [0 0 0 0] ------- [0:0 1:0 32 0] [28] 0 0
s 0.810000000 _0_ RTR  --- 28 cbr 1020 [0 0 0 0] ------- [0:0 1:0 30 1] [28] 0 0
r 0.811732182 _1_ AGT  --- 28 cbr 1020 [13a 1 0 800] ------- [0:0 1:0 30 1] [28] 1 0
s 0.830000000 _0_ AGT  --- 29 cbr 1000 [0 0 0 0] ------- [0:0 1:0 32 0] [29] 0 0
r 0.830000000 _0_ RTR  --- 29 cbr 1000 [0 0 0 0] ------- [0:0 1:0 32 0] [29] 0 0
s 0.830000000 _0_ RTR  --- 29 cbr 1020 [0 0 0 0] ------- [0:0 1:0 30 1] [29] 0 0
r 0.831732182 _1_ AGT  --- 29 cbr 1020 [13a 1 0 800] ------- [0:0 1:0 30 1] [29] 1 0
s 0.850000000 _0_ AGT  --- 30 cbr 1000 [0 0 0 0] ------- [0:0 1:0 32 0] [30] 0 0
r 0.850000000 _0_ RTR  --- 30 cbr 1000 [0 0 0 0] ------- [0:0 1:0 32 0] [30] 0 0
s 0.850000000 _0_ RTR  --- 30 cbr 1020 [0 0 0 0] ------- [0:0 1:0 30 1] [30] 0 0
r 0.851732182 _1_ AGT  --- 30 cbr 1020 [13a 1 0 800] ------- [0:0 1:0 30 1] [30] 1 0
s 0.870000000 _0_ AGT  --- 31 cbr 1000 [0 0 0 0] ------- [0:0 1:0 32 0] [31] 0 0
r 0.870000000 _0_ RTR  --- 31 cbr 1000 [0 0 0 0] ------- [0:0 1:0 32 0] [31] 0 0
s 0.870000000 _0_ RTR  --- 31 cbr 1020 [0 0 0 0] ------- [0:0 1:0 30 1] [31] 0 0
r 0.871732182 _1_ AGT  --- 31 cbr 1020 [13a 1 0 800] ------- [0:0 1:0 30 1] [31] 1 0
s 0.890000000 _0_ AGT  --- 32 cbr 1000 [0 0 0 0] ------- [0:0 1:0 32 0] [32] 0 0
r 0.890000000 _0_ RTR  --- 32 cbr 1000 [0 0 0 0] ------- [0:0 1:0 32 0] [32] 0 0
s 0.890000000 _0_ RTR  --- 32 cbr 1020 [0 0 0 0] ------- [0:0 1:0 30 1] [32] 0 0
r 0.891732182 _1_ AGT  --- 32 cbr 1020 [13a 1 0 800] ------- [0:0 1:0 30 1] [32] 1 0
s 0.910000000 _0_ AGT  --- 33 cbr 1000 [0 0 0 0] ------- [0:0 1:0 32 0] [33] 0 0
r 0.910000000 _0_ RTR  --- 33 cbr 1000 [0 0 0 0] ------- [0:0 1:0 32 0] [33] 0 0
s 0.910000000 _0_ RTR  --- 33 cbr 1020 [0 0 0 0] ------- [0:0 1:0 30 1] [33] 0 0
r 0.911732182 _1_ AGT  --- 33 cbr 1020 [13a 1 0 800] ------- [0:0 1:0 30 1] [33] 1 0
s 0.930000000 _0_ AGT  --- 34 cbr 1000 [0 0 0 0] ------- [0:0 1:0 32 0] [34] 0 0
r 0.930000000 _0_ RTR  --- 34 cbr 1000 [0 0 0 0] ------- [0:0 1:0 32 0] [34] 0 0
s 0.930000000 _0_ RTR  --- 34 cbr 1020 [0 0 0 0] ------- [0:0 1:0 30 1] [34] 0 0
r 0.931732182 _1_ AGT  --- 34 cbr 1020 [13a 1 0 800] ------- [0:0 1:0 30 1] [34] 1 0
s 0.950000000 _0_ AGT  --- 35 cbr 1000 [0 0 0 0] ------- [0:0 1:0 32 0] [35] 0 0
r 0.950000000 _0_ RTR  --- 35 cbr 1000 [0 0 0 0] ------- [0:0 1:0 32 0] [35] 0 0
s 0.950000000 _0_ RTR  --- 35 cbr 1020 [0 0 0 0] ------- [0:0 1:0 30 1] [35] 0 0
r 0.951732182 _1_ AGT  --- 35 cbr 1020 [13a 1 0 800] ------- [0:0 1:0 30 1] [35] 1 0
s 0.970000000 _0_ AGT  --- 36 cbr 1000 [0 0 0 0] ------- [0:0 1:0 32 0] [36] 0 0
r 0.970000000 _0_ RTR  --- 36 cbr 1000 [0 0 0 0] ------- [0:0 1:0 32 0] [36] 0 0
s 0.970000000 _0_ RTR  --- 36 cbr 1020 [0 0 0 0] ------- [0:0 1:0 30 1] [36] 0 0
r 0.971732182 _1_ AGT  --- 36 cbr 1020 [13a 1 0 800] ------- [0:0 1:0 30 1] [36] 1 0
s 0.990000000 _0_ AGT  --- 37 cbr 1000 [0 0 0 0] ------- [0:0 1:0 32 0] [37] 0 0
r 0.990000000 _0_ RTR  --- 37 cbr 1000 [0 0 0 0] ------- [0:0 1:0 32 0] [37] 0 0
s 0.990000000 _0_ RTR  --- 37 cbr 1020 [0 0 0 0] ------- [0:0 1:0 30 1] [37] 0 0
r 0.991732182 _1_ AGT  --- 37 cbr 1020 [13a 1 0 800] ------- [0:0 1:0 30 1] [37] 1 0
s 1.010000000 _0_ AGT  --- 38 cbr 1000 [0 0 0 0] ------- [0:0 1:0 32 0] [38] 0 0
r 1.010000000 _0_ RTR  --- 38 cbr 1000 [0 0 0 0] ------- [0:0 1:0 32 0] [38] 0 0
s 1.010000000 _0_ RTR  --- 38 cbr 1020 [0 0 0 0] ------- [0:0 1:0 30 1] [38] 0 0
r 1.011732182 _1_ AGT  --- 38 cbr 1020 [13a 1 0 800] ------- [0:0 1:0 30 1] [38] 1 0
s 1.030000000 _0_ AGT  --- 39 cbr 1000 [0 0 0 0] ------- [0:0 1:0 32 0] [39] 0 0
r 1.030000000 _0_ RTR  --- 39 cbr 1000 [0 0 0 0] ------- [0:0 1:0 32 0] [39] 0 0
s 1.030000000 _0_ RTR  --- 39 cbr 1020 [0 0 0 0] ------- [0:0 1:0 30 1] [39] 0 0
r 1.031732182 _1_ AGT  --- 39 cbr 1020 [13a 1 0 800] ------- [0:0 1:0 30 1] [39] 1 0
s 1.050000000 _0_ AGT  --- 40 cbr 1000 [0 0 0 0] ------- [0:0 1:0 32 0] [40] 0 0
r 1.050000000 _0_ RTR  --- 40 cbr 1000 [0 0 0 0] ------- [0:0 1:0 32 0] [40] 0 0
s 1.050000000 _0_ RTR  --- 40 cbr 1020 [0 0 0 0] ------- [0:0 1:0 30 1] [40] 0 0
r 1.051732182 _1_ AGT  --- 40 cbr 1020 [13a 1 0 800] ------- [0:0 1:0 30 1] [40] 1 0
s 1.070000000 _0_ AGT  --- 41 cbr 1000 [0 0 0 0] ------- [0:0 1:0 32 0] [41] 0 0
r 1.070000000 _0_ RTR  --- 41 cbr 1000 [0 0 0 0] ------- [0:0 1:0 32 0] [41] 0 0
s 1.070000000 _0_ RTR  --- 41 cbr 1020 [0 0 0 0] ------- [0:0 1:0 30 1] [41] 0 0
r 1.071732182 _1_ AGT  --- 41 cbr 1020 [13a 1 0 800] ------- [0:0 1:0 30 1] [41] 1 0
s 1.090000000 _0_ AGT  --- 42 cbr 1000 [0 0 0 0] ------- [0:0 1:0 32 0] [42] 0 0
r 1.090000000 _0_ RTR  --- 42 cbr 1000 [0 0 0 0] ------- [0:0 1:0 32 0] [42] 0 0
s 1.090000000 _0_ RTR  --- 42 cbr 1020 [0 0 0 0] ------- [0:0 1:0 30 1] [42] 0 0
r 1.091732182 _1_ AGT  --- 42 cbr 1020 [13a 1 0 800] ------- [0:0 1:0 30 1] [42] 1 0
s 1.110000000 _0_ AGT  --- 43 cbr 1000 [0 0 0 0] ------- [0:0 1:0 32 0] [43] 0 0
r 1.110000000 _0_ RTR  --- 43 cbr 1000 [0 0 0 0] ------- [0:0 1:0 32 0] [43] 0 0
s 1.110000000 _0_ RTR  --- 43 cbr 1020 [0 0 0 0] ------- [0:0 1:0 30 1] [43] 0 0
r 1.111732182 _1_ AGT  --- 43 cbr 1020 [13a 1 0 800] ------- [0:0 1:0 30 1] [43] 1 0
s 1.130000000 _0_ AGT  --- 44 cbr 1000 [0 0 0 0] ------- [0:0 1:0 32 0] [44] 0 0
r 1.130000000 _0_ RTR  --- 44 cbr 1000 [0 0 0 0] ------- [0:0 1:0 32 0] [44] 0 0
s 1.130000000 _0_ RTR  --- 44 cbr 1020 [0 0 0 0] ------- [0:0 1:0 30 1] [44] 0 0
r 1.131732182 _1_ AGT  --- 44 cbr 1020 [13a 1 0 800] ------- [0:0 1:0 30 1] [44] 1 0
s 1.150000000 _0_ AGT  --- 45 cbr 1000 [0 0 0 0] ------- [0:0 1:0 32 0] [45] 0 0
r 1.150000000 _0_ RTR  --- 45 cbr 1000 [0 0 0 0] ------- [0:0 1:0 32 0] [45] 0 0
s 1.150000000 _0_ RTR  --- 45 cbr 1020 [0 0 0 0] ------- [0:0 1:0 30 1] [45] 0 0
r 1.151732182 _1_ AGT  --- 45 cbr 1020 [13a 1 0 800] ------- [0:0 1:0 30 1] [45] 1 0
s 1.170000000 _0_ AGT  --- 46 cbr 1000 [0 0 0 0] ------- [0:0 1:0 32 0] [46] 0 0
r 1.170000000 _0_ RTR  --- 46 cbr 1000 [0 0 0 0] ------- [0:0 1:0 32 0] [46] 0 0
s 1.170000000 _0_ RTR  --- 46 cbr 1020 [0 0 0 0] ------- [0:0 1:0 30 1] [46] 0 0
r 1.171732182 _1_ AGT  --- 46 cbr 1020 [13a 1 0 800] ------- [0:0 1:0 30 1] [46] 1 0
s 1.190000000 _0_ AGT  --- 47 cbr 1000 [0 0 0 0] ------- [0:0 1:0 32 0] [47] 0 0
r 1.190000000 _0_ RTR  --- 47 cbr 1000 [0 0 0 0] ------- [0:0 1:0 32 0] [47] 0 0
s 1.190000000 _0_ RTR  --- 47 cbr 1020 [0 0 0 0] ------- [0:0 1:0 30 1] [47] 0 0
r 1.191732182 _1_ AGT  --- 47 cbr 1020 [13a 1 0 800] ------- [0:0 1:0 30 1] [47] 1 0
s 1.210000000 _0_ AGT  --- 48 cbr 1000 [0 0 0 0] ------- [0:0 1:0 32 0] [48] 0 0
r 1.210000000 _0_ RTR  --- 48 cbr 1000 [0 0 0 0] ------- [0:0 1:0 32 0] [48] 0 0
s 1.210000000 _0_ RTR  --- 48 cbr 1020 [0 0 0 0] ------- [0:0 1:0 30 1] [48] 0 0
r 1.211732182 _1_ AGT  --- 48 cbr 1020 [13a 1 0 800] ------- [0:0 1:0 30 1] [48] 1 0
s 1.230000000 _0_ AGT  --- 49 cbr 1000 [0 0 0 0] ------- [0:0 1:0 32 0] [49] 0 0
r 1.230000000 _0_ RTR  --- 49 cbr 1000 [0 0 0 0] ------- [0:0 1:0 32 0] [49] 0 0
s 1.230000000 _0_ RTR  --- 49 cbr 1020 [0 0 0 0] ------- [0:0 1:0 30 1] [49] 0 0
r 1.231732182 _1_ AGT  --- 49 cbr 1020 [13a 1 0 800] ------- [0:0 1:0 30 1] [49] 1 0
s 1.250000000 _0_ AGT  --- 50 cbr 1000 [0 0 0 0] ------- [0:0 1:0 32 0] [50] 0 0
r 1.250000000 _0_ RTR  --- 50 cbr 1000 [0 0 0 0] ------- [0:0 1:0 32 0] [50] 0 0
s 1.250000000 _0_ RTR  --- 50 cbr 1020 [0 0 0 0] ------- [0:0 1:0 30 1] [50] 0 0
r 1.251732182 _1_ AGT  --- 50 cbr 1020 [13a 1 0 800] ------- [0:0 1:0 30 1] [50] 1 0
s 1.270000000 _0_ AGT  --- 51 cbr 1000 [0 0 0 0] ------- [0:0 1:0 32 0] [51] 0 0
r 1.270000000 _0_ RTR  --- 51 cbr 1000 [0 0 0 0] ------- [0:0 1:0 32 0] [51] 0 0
s 1.270000000 _0_ RTR  --- 51 cbr 1020 [0 0 0 0] ------- [0:0 1:0 30 1] [51] 0 0
r 1.271732182 _1_ AGT  --- 51 cbr 1020 [13a 1 0 800] ------- [0:0 1:0 30 1] [51] 1 0
s 1.290000000 _0_ AGT  --- 52 cbr 1000 [0 0 0 0] ------- [0:0 1:0 32 0] [52] 0 0
r 1.290000000 _0_ RTR  --- 52 cbr 1000 [0 0 0 0] ------- [0:0 1:0 32 0] [52] 0 0
s 1.290000000 _0_ RTR  --- 52 cbr 1020 [0 0 0 0] ------- [0:0 1:0 30 1] [52] 0 0
r 1.291732182 _1_ AGT  --- 52 cbr 1020 [13a 1 0 800] ------- [0:0 1:0 30 1] [52] 1 0
s 1.310000000 _0_ AGT  --- 53 cbr 1000 [0 0 0 0] ------- [0:0 1:0 32 0] [53] 0 0
r 1.310000000 _0_ RTR  --- 53 cbr 1000 [0 0 0 0] ------- [0:0 1:0 32 0] [53] 0 0
s 1.310000000 _0_ RTR  --- 53 cbr 1020 [0 0 0 0] ------- [0:0 1:0 30 1] [53] 0 0
r 1.311732182 _1_ AGT  --- 53 cbr 1020 [13a 1 0 800] ------- [0:0 1:0 30 1] [53] 1 0
s 1.330000000 _0_ AGT  --- 54 cbr 1000 [0 0 0 0] ------- [0:0 1:0 32 0] [54] 0 0
r 1.330000000 _0_ RTR  --- 54 cbr 1000 [0 0 0 0] ------- [0:0 1:0 32 0] [54] 0 0
s 1.330000000 _0_ RTR  --- 54 cbr 1020 [0 0 0 0] ------- [0:0 1:0 30 1] [54] 0 0
r 1.331732182 _1_ AGT  --- 54 cbr 1020 [13a 1 0 800] ------- [0:0 1:0 30 1] [54] 1 0
s 1.350000000 _0_ AGT  --- 55 cbr 1000 [0 0 0 0] ------- [0:0 1:0 32 0] [55] 0 0
r 1.350000000 _0_ RTR  --- 55 cbr 1000 [0 0 0 0] ------- [0:0 1:0 32 0] [55] 0 0
s 1.350000000 _0_ RTR  --- 55 cbr 1020 [0 0 0 0] ------- [0:0 1:0 30 1] [55] 0 0
r 1.351732182 _1_ AGT  --- 55 cbr 1020 [13a 1 0 800] ------- [0:0 1:0 30 1] [55] 1 0
s 1.370000000 _0_ AGT  --- 56 cbr 1000 [0 0 0 0] ------- [0:0 1:0 32 0] [56] 0 0
r 1.370000000 _0_ RTR  --- 56 cbr 1000 [0 0 0 0] ------- [0:0 1:0 32 0] [56] 0 0
s 1.370000000 _0_ RTR  --- 56 cbr 1020 [0 0 0 0] ------- [0:0 1:0 30 1] [56] 0 0
r 1.371732182 _1_ AGT  --- 56 cbr 1020 [13a 1 0 800] ------- [0:0 1:0 30 1] [56] 1 0
s 1.390000000 _0_ AGT  --- 57 cbr 1000 [0 0 0 0] ------- [0:0 1:0 32 0] [57] 0 0
r 1.390000000 _0_ RTR  --- 57 cbr 1000 [0 0 0 0] ------- [0:0 1:0 32 0] [57] 0 0
s 1.390000000 _0_ RTR  --- 57 cbr 1020 [0 0 0 0] ------- [0:0 1:0 30 1] [57] 0 0
r 1.391732182 _1_ AGT  --- 57 cbr 1020 [13a 1 0 800] ------- [0:0 1:0 30 1] [57] 1 0
s 1.410000000 _0_ AGT  --- 58 cbr 1000 [0 0 0 0] ------- [0:0 1:0 32 0] [58] 0 0
r 1.410000000 _0_ RTR  --- 58 cbr 1000 [0 0 0 0] ------- [0:0 1:0 32 0] [58] 0 0
s 1.410000000 _0_ RTR  --- 58 cbr 1020 [0 0 0 0] ------- [0:0 1:0 30 1] [58] 0 0
r 1.411732182 _1_ AGT  --- 58 cbr 1020 [13a 1 0 800] ------- [0:0 1:0 30 1] [58] 1 0
s 1.430000000 _0_ AGT  --- 59 cbr 1000 [0 0 0 0] ------- [0:0 1:0 32 0] [59] 0 0
r 1.430000000 _0_ RTR  --- 59 cbr 1000 [0 0 0 0] ------- [0:0 1:0 32 0] [59] 0 0
s 1.430000000 _0_ RTR  --- 59 cbr 1020 [0 0 0 0] ------- [0:0 1:0 30 1] [59] 0 0
r 1.431732182 _1_ AGT  --- 59 cbr 1020 [13a 1 0 800] ------- [0:0 1:0 30 1] [59] 1 0
s 1.450000000 _0_ AGT  --- 60 cbr 1000 [0 0 0 0] ------- [0:0 1:0 32 0] [60] 0 0
r 1.450000000 _0_ RTR  --- 60 cbr 1000 [0 0 0 0] ------- [0:0 1:0 32 0] [60] 0 0
s 1.450000000 _0_ RTR  --- 60 cbr 1020 [0 0 0 0] ------- [0:0 1:0 30 1] [60] 0 0
r 1.451732182 _1_ AGT  --- 60 cbr 1020 [13a 1 0 800] ------- [0:0 1:0 30 1] [60] 1 0
s 1.470000000 _0_ AGT  --- 61 cbr 1000 [0 0 0 0] ------- [0:0 1:0 32 0] [61] 0 0
r 1.470000000 _0_ RTR  --- 61 cbr 1000 [0 0 0 0] ------- [0:0 1:0 32 0] [61] 0 0
s 1.470000000 _0_ RTR  --- 61 cbr 1020 [0 0 0 0] ------- [0:0 1:0 30 1] [61] 0 0
r 1.471732182 _1_ AGT  --- 61 cbr 1020 [13a 1 0 800] ------- [0:0 1:0 30 1] [61] 1 0
s 1.490000000 _0_ AGT  --- 62 cbr 1000 [0 0 0 0] ------- [0:0 1:0 32 0] [62] 0 0
r 1.490000000 _0_ RTR  --- 62 cbr 1000 [0 0 0 0] ------- [0:0 1:0 32 0] [62] 0 0
s 1.490000000 _0_ RTR  --- 62 cbr 1020 [0 0 0 0] ------- [0:0 1:0 30 1] [62] 0 0
r 1.491732182 _1_ AGT  --- 62 cbr 1020 [13a 1 0 800] ------- [0:0 1:0 30 1] [62] 1 0
s 1.510000000 _0_ AGT  --- 63 cbr 1000 [0 0 0 0] ------- [0:0 1:0 32 0] [63] 0 0
r 1.510000000 _0_ RTR  --- 63 cbr 1000 [0 0 0 0] ------- [0:0 1:0 32 0] [63] 0 0
s 1.510000000 _0_ RTR  --- 63 cbr 1020 [0 0 0 0] ------- [0:0 1:0 30 1] [63] 0 0
r 1.511732182 _1_ AGT  --- 63 cbr 1020 [13a 1 0 800] ------- [0:0 1:0 30 1] [63] 1 0
s 1.530000000 _0_ AGT  --- 64 cbr 1000 [0 0 0 0] ------- [0:0 1:0 32 0] [64] 0 0
r 1.530000000 _0_ RTR  --- 64 cbr 1000 [0 0 0 0] ------- [0:0 1:0 32 0] [64] 0 0
s 1.530000000 _0_ RTR  --- 64 cbr 1020 [0 0 0 0] ------- [0:0 1:0 30 1] [64] 0 0
r 1.531732182 _1_ AGT  --- 64 cbr 1020 [13a 1 0 800] ------- [0:0 1:0 30 1] [64] 1 0
s 1.550000000 _0_ AGT  --- 65 cbr 1000 [0 0 0 0] ------- [0:0 1:0 32 0] [65] 0 0
r 1.550000000 _0_ RTR  --- 65 cbr 1000 [0 0 0 0] ------- [0:0 1:0 32 0] [65] 0 0
s 1.550000000 _0_ RTR  --- 65 cbr 1020 [0 0 0 0] ------- [0:0 1:0 30 1] [65] 0 0
r 1.551732182 _1_ AGT  --- 65 cbr 1020 [13a 1 0 800] ------- [0:0 1:0 30 1] [65] 1 0
s 1.570000000 _0_ AGT  --- 66 cbr 1000 [0 0 0 0] ------- [0:0 1:0 32 0] [66] 0 0
r 1.570000000 _0_ RTR  --- 66 cbr 1000 [0 0 0 0] ------- [0:0 1:0 32 0] [66] 0 0
s 1.570000000 _0_ RTR  --- 66 cbr 1020 [0 0 0 0] ------- [0:0 1:0 30 1] [66] 0 0
r 1.571732182 _1_ AGT  --- 66 cbr 1020 [13a 1 0 800] ------- [0:0 1:0 30 1] [66] 1 0
s 1.590000000 _0_ AGT  --- 67 cbr 1000 [0 0 0 0] ------- [0:0 1:0 32 0] [67] 0 0
r 1.590000000 _0_ RTR  --- 67 cbr 1000 [0 0 0 0] ------- [0:0 1:0 32 0] [67] 0 0
s 1.590000000 _0_ RTR  --- 67 cbr 1020 [0 0 0 0] ------- [0:0 1:0 30 1] [67] 0 0
r 1.591732182 _1_ AGT  --- 67 cbr 1020 [13a 1 0 800] ------- [0:0 1:0 30 1] [67] 1 0
s 1.610000000 _0_ AGT  --- 68 cbr 1000 [0 0 0 0] ------- [0:0 1:0 32 0] [68] 0 0
r 1.610000000 _0_ RTR  --- 68 cbr 1000 [0 0 0 0] ------- [0:0 1:0 32 0] [68] 0 0
s 1.610000000 _0_ RTR  --- 68 cbr 1020 [0 0 0 0] ------- [0:0 1:0 30 1] [68] 0 0
r 1.611732182 _1_ AGT  --- 68 cbr 1020 [13a 1 0 800] ------- [0:0 1:0 30 1] [68] 1 0
s 1.630000000 _0_ AGT  --- 69 cbr 1000 [0 0 0 0] ------- [0:0 1:0 32 0] [69] 0 0
r 1.630000000 _0_ RTR  --- 69 cbr 1000 [0 0 0 0] ------- [0:0 1:0 32 0] [69] 0 0
s 1.630000000 _0_ RTR  --- 69 cbr 1020 [0 0 0 0] ------- [0:0 1:0 30 1] [69] 0 0
r 1.631732182 _1_ AGT  --- 69 cbr 1020 [13a 1 0 800] ------- [0:0 1:0 30 1] [69] 1 0
s 1.650000000 _0_ AGT  --- 70 cbr 1000 [0 0 0 0] ------- [0:0 1:0 32 0] [70] 0 0
r 1.650000000 _0_ RTR  --- 70 cbr 1000 [0 0 0 0] ------- [0:0 1:0 32 0] [70] 0 0
s 1.650000000 _0_ RTR  --- 70 cbr 1020 [0 0 0 0] ------- [0:0 1:0 30 1] [70] 0 0
r 1.651732182 _1_ AGT  --- 70 cbr 1020 [13a 1 0 800] ------- [0:0 1:0 30 1] [70] 1 0
s 1.670000000 _0_ AGT  --- 71 cbr 1000 [0 0 0 0] ------- [0:0 1:0 32 0] [71] 0 0
r 1.670000000 _0_ RTR  --- 71 cbr 1000 [0 0 0 0] ------- [0:0 1:0 32 0] [71] 0 0
s 1.670000000 _0_ RTR  --- 71 cbr 1020 [0 0 0 0] ------- [0:0 1:0 30 1] [71] 0 0
r 1.671732182 _1_ AGT  --- 71 cbr 1020 [13a 1 0 800] ------- [0:0 1:0 30 1] [71] 1 0
s 1.690000000 _0_ AGT  --- 72 cbr 1000 [0 0 0 0] ------- [0:0 1:0 32 0] [72] 0 0
r 1.690000000 _0_ RTR  --- 72 cbr 1000 [0 0 0 0] ------- [0:0 1:0 32 0] [72] 0 0
s 1.690000000 _0_ RTR  --- 72 cbr 1020 [0 0 0 0] ------- [0:0 1:0 30 1] [72] 0 0
r 1.691732182 _1_ AGT  --- 72 cbr 1020 [13a 1 0 800] ------- [0:0 1:0 30 1] [72] 1 0
s 1.710000000 _0_ AGT  --- 73 cbr 1000 [0 0 0 0] ------- [0:0 1:0 32 0] [73] 0 0
r 1.710000000 _0_ RTR  --- 73 cbr 1000 [0 0 0 0] ------- [0:0 1:0 32 0] [73] 0 0
s 1.710000000 _0_ RTR  --- 73 cbr 1020 [0 0 0 0] ------- [0:0 1:0 30 1] [73] 0 0
r 1.711732182 _1_ AGT  --- 73 cbr 1020 [13a 1 0 800] ------- [0:0 1:0 30 1] [73] 1 0
s 1.730000000 _0_ AGT  --- 74 cbr 1000 [0 0 0 0] ------- [0:0 1:0 32 0] [74] 0 0
r 1.730000000 _0_ RTR  --- 74 cbr 1000 [0 0 0 0] ------- [0:0 1:0 32 0] [74] 0 0
s 1.730000000 _0_ RTR  --- 74 cbr 1020 [0 0 0 0] ------- [0:0 1:0 30 1] [74] 0 0
r 1.731732182 _1_ AGT  --- 74 cbr 1020 [13a 1 0 800] ------- [0:0 1:0 30 1] [74] 1 0
s 1.750000000 _0_ AGT  --- 75 cbr 1000 [0 0 0 0] ------- [0:0 1:0 32 0] [75] 0 0
r 1.750000000 _0_ RTR  --- 75 cbr 1000 [0 0 0 0] ------- [0:0 1:0 32 0] [75] 0 0
s 1.750000000 _0_ RTR  --- 75 cbr 1020 [0 0 0 0] ------- [0:0 1:0 30 1] [75] 0 0
r 1.751732182 _1_ AGT  --- 75 cbr 1020 [13a 1 0 800] ------- [0:0 1:0 30 1] [75] 1 0
s 1.770000000 _0_ AGT  --- 76 cbr 1000 [0 0 0 0] ------- [0:0 1:0 32 0] [76] 0 0
r 1.770000000 _0_ RTR  --- 76 cbr 1000 [0 0 0 0] ------- [0:0 1:0 32 0] [76] 0 0
s 1.770000000 _0_ RTR  --- 76 cbr 1020 [0 0 0 0] ------- [0:0 1:0 30 1] [76] 0 0
r 1.771732182 _1_ AGT  --- 76 cbr 1020 [13a 1 0 800] ------- [0:0 1:0 30 1] [76] 1 0
s 1.790000000 _0_ AGT  --- 77 cbr 1000 [0 0 0 0] ------- [0:0 1:0 32 0] [77] 0 0
r 1.790000000 _0_ RTR  --- 77 cbr 1000 [0 0 0 0] ------- [0:0 1:0 32 0] [77] 0 0
s 1.790000000 _0_ RTR  --- 77 cbr 1020 [0 0 0 0] ------- [0:0 1:0 30 1] [77] 0 0
r 1.791732182 _1_ AGT  --- 77 cbr 1020 [13a 1 0 800] ------- [0:0 1:0 30 1] [77] 1 0
s 1.810000000 _0_ AGT  --- 78 cbr 1000 [0 0 0 0] ------- [0:0 1:0 32 0] [78] 0 0
r 1.810000000 _0_ RTR  --- 78 cbr 1000 [0 0 0 0] ------- [0:0 1:0 32 0] [78] 0 0
s 1.810000000 _0_ RTR  --- 78 cbr 1020 [0 0 0 0] ------- [0:0 1:0 30 1] [78] 0 0
r 1.811732182 _1_ AGT  --- 78 cbr 1020 [13a 1 0 800] ------- [0:0 1:0 30 1] [78] 1 0
s 1.830000000 _0_ AGT  --- 79 cbr 1000 [0 0 0 0] ------- [0:0 1:0 32 0] [79] 0 0
r 1.830000000 _0_ RTR  --- 79 cbr 1000 [0 0 0 0] ------- [0:0 1:0 32 0] [79] 0 0
s 1.830000000 _0_ RTR  --- 79 cbr 1020 [0 0 0 0] ------- [0:0 1:0 30 1] [79] 0 0
r 1.831732182 _1_ AGT  --- 79 cbr 1020 [13a 1 0 800] ------- [0:0 1:0 30 1] [79] 1 0
s 1.850000000 _0_ AGT  --- 80 cbr 1000 [0 0 0 0] ------- [0:0 1:0 32 0] [80] 0 0
r 1.850000000 _0_ RTR  --- 80 cbr 1000 [0 0 0 0] ------- [0:0 1:0 32 0] [80] 0 0
s 1.850000000 _0_ RTR  --- 80 cbr 1020 [0 0 0 0] ------- [0:0 1:0 30 1] [80] 0 0
r 1.851732182 _1_ AGT  --- 80 cbr 1020 [13a 1 0 800] ------- [0:0 1:0 30 1] [80] 1 0
s 1.870000000 _0_ AGT  --- 81 cbr 1000 [0 0 0 0] ------- [0:0 1:0 32 0] [81] 0 0
r 1.870000000 _0_ RTR  --- 81 cbr 1000 [0 0 0 0] ------- [0:0 1:0 32 0] [81] 0 0
s 1.870000000 _0_ RTR  --- 81 cbr 1020 [0 0 0 0] ------- [0:0 1:0 30 1] [81] 0 0
r 1.871732182 _1_ AGT  --- 81 cbr 1020 [13a 1 0 800] ------- [0:0 1:0 30 1] [81] 1 0
s 1.890000000 _0_ AGT  --- 82 cbr 1000 [0 0 0 0] ------- [0:0 1:0 32 0] [82] 0 0
r 1.890000000 _0_ RTR  --- 82 cbr 1000 [0 0 0 0] ------- [0:0 1:0 32 0] [82] 0 0
s 1.890000000 _0_ RTR  --- 82 cbr 1020 [0 0 0 0] ------- [0:0 1:0 30 1] [82] 0 0
r 1.891732182 _1_ AGT  --- 82 cbr 1020 [13a 1 0 800] ------- [0:0 1:0 30 1] [82] 1 0
s 1.910000000 _0_ AGT  --- 83 cbr 1000 [0 0 0 0] ------- [0:0 1:0 32 0] [83] 0 0
r 1.910000000 _0_ RTR  --- 83 cbr 1000 [0 0 0 0] ------- [0:0 1:0 32 0] [83] 0 0
s 1.910000000 _0_ RTR  --- 83 cbr 1020 [0 0 0 0] ------- [0:0 1:0 30 1] [83] 0 0
r 1.911732182 _1_ AGT  --- 83 cbr 1020 [13a 1 0 800] ------- [0:0 1:0 30 1] [83] 1 0
s 1.930000000 _0_ AGT  --- 84 cbr 1000 [0 0 0 0] ------- [0:0 1:0 32 0] [84] 0 0
r 1.930000000 _0_ RTR  --- 84 cbr 1000 [0 0 0 0] ------- [0:0 1:0 32 0] [84] 0 0
s 1.930000000 _0_ RTR  --- 84 cbr 1020 [0 0 0 0] ------- [0:0 1:0 30 1] [84] 0 0
r 1.931732182 _1_ AGT  --- 84 cbr 1020 [13a 1 0 800] ------- [0:0 1:0 30 1] [84] 1 0
s 1.950000000 _0_ AGT  --- 85 cbr 1000 [0 0 0 0] ------- [0:0 1:0 32 0] [85] 0 0
r 1.950000000 _0_ RTR  --- 85 cbr 1000 [0 0 0 0] ------- [0:0 1:0 32 0] [85] 0 0
s 1.950000000 _0_ RTR  --- 85 cbr 1020 [0 0 0 0] ------- [0:0 1:0 30 1] [85] 0 0
r 1.951732182 _1_ AGT  --- 85 cbr 1020 [13a 1 0 800] ------- [0:0 1:0 30 1] [85] 1 0
s 1.970000000 _0_ AGT  --- 86 cbr 1000 [0 0 0 0] ------- [0:0 1:0 32 0] [86] 0 0
r 1.970000000 _0_ RTR  --- 86 cbr 1000 [0 0 0 0] ------- [0:0 1:0 32 0] [86] 0 0
s 1.970000000 _0_ RTR  --- 86 cbr 1020 [0 0 0 0] ------- [0:0 1:0 30 1] [86] 0 0
r 1.971732182 _1_ AGT  --- 86 cbr 1020 [13a 1 0 800] ------- [0:0 1:0 30 1] [86] 1 0
s 1.990000000 _0_ AGT  --- 87 cbr 1000 [0 0 0 0] ------- [0:0 1:0 32 0] [87] 0 0
r 1.990000000 _0_ RTR  --- 87 cbr 1000 [0 0 0 0] ------- [0:0 1:0 32 0] [87] 0 0
s 1.990000000 _0_ RTR  --- 87 cbr 1020 [0 0 0 0] ------- [0:0 1:0 30 1] [87] 0 0
r 1.991732182 _1_ AGT  --- 87 cbr 1020 [13a 1 0 800] ------- [0:0 1:0 30 1] [87] 1 0
s 2.010000000 _0_ AGT  --- 88 cbr 1000 [0 0 0 0] ------- [0:0 1:0 32 0] [88] 0 0
r 2.010000000 _0_ RTR  --- 88 cbr 1000 [0 0 0 0] ------- [0:0 1:0 32 0] [88] 0 0
s 2.010000000 _0_ RTR  --- 88 cbr 1020 [0 0 0 0] ------- [0:0 1:0 30 1] [88] 0 0
r 2.011732182 _1_ AGT  --- 88 cbr 1020 [13a 1 0 800] ------- [0:0 1:0 30 1] [88] 1 0
s 2.030000000 _0_ AGT  --- 89 cbr 1000 [0 0 0 0] ------- [0:0 1:0 32 0] [89] 0 0