V -t * -v 1.0a5 -a 0
A -t * -n 1 -p 0 -o 0xffffffff -c 31 -a 1
A -t * -h 1 -m 2147483647 -s 0
c -t * -i 0 -n blue
c -t * -i 1 -n orange
n -t * -a 0 -s 0 -S UP -v circle -c black -i black
n -t * -a 1 -s 1 -S UP -v circle -c black -i black
n -t * -a 2 -s 2 -S UP -v circle -c black -i black
n -t * -a 3 -s 3 -S UP -v circle -c black -i black
l -t * -s 0 -d 1 -S UP -r 3000000 -D 0.11 -c black -o right
l -t * -s 1 -d 2 -S UP -r 3000000 -D 0.11 -c black -o down
l -t * -s 2 -d 3 -S UP -r 3000000 -D 0.11 -c black -o left
l -t * -s 3 -d 0 -S UP -r 3000000 -D 0.11 -c black -o up
n -t 0 -s 0 -S DLABEL -l "GBN_sender" -L ""
n -t 0 -s 3 -S DLABEL -l "GBN_receiver" -L ""
n -t 0 -s 1 -S DLABEL -l "SW_sender" -L ""
n -t 0 -s 2 -S DLABEL -l "SW_receiver" -L ""
+ -t 0.25 -s 0 -d 3 -p tcp -e 960 -c 0 -i 0 -a 0 -x {0.0 3.0 0 ------- null}
- -t 0.25 -s 0 -d 3 -p tcp -e 960 -c 0 -i 0 -a 0 -x {0.0 3.0 0 ------- null}
h -t 0.25 -s 0 -d 3 -p tcp -e 960 -c 0 -i 0 -a 0 -x {0.0 3.0 -1 ------- null}
+ -t 0.25 -s 0 -d 3 -p tcp -e 1000 -c 0 -i 1 -a 0 -x {0.0 3.0 1 ------- null}
+ -t 0.25 -s 0 -d 3 -p tcp -e 1000 -c 0 -i 2 -a 0 -x {0.0 3.0 2 ------- null}
+ -t 0.25 -s 0 -d 3 -p tcp -e 1000 -c 0 -i 3 -a 0 -x {0.0 3.0 3 ------- null}
+ -t 0.25 -s 0 -d 3 -p tcp -e 1000 -c 0 -i 4 -a 0 -x {0.0 3.0 4 ------- null}
+ -t 0.25 -s 0 -d 3 -p tcp -e 1000 -c 0 -i 5 -a 0 -x {0.0 3.0 5 ------- null}
+ -t 0.25 -s 0 -d 3 -p tcp -e 1000 -c 0 -i 6 -a 0 -x {0.0 3.0 6 ------- null}
+ -t 0.25 -s 0 -d 3 -p tcp -e 1000 -c 0 -i 7 -a 0 -x {0.0 3.0 7 ------- null}
+ -t 0.25 -s 0 -d 3 -p tcp -e 1000 -c 0 -i 8 -a 0 -x {0.0 3.0 8 ------- null}
+ -t 0.25 -s 0 -d 3 -p tcp -e 1000 -c 0 -i 9 -a 0 -x {0.0 3.0 9 ------- null}
+ -t 0.25 -s 0 -d 3 -p tcp -e 1000 -c 0 -i 10 -a 0 -x {0.0 3.0 10 ------- null}
+ -t 0.25 -s 0 -d 3 -p tcp -e 1000 -c 0 -i 11 -a 0 -x {0.0 3.0 11 ------- null}
+ -t 0.25 -s 0 -d 3 -p tcp -e 1000 -c 0 -i 12 -a 0 -x {0.0 3.0 12 ------- null}
+ -t 0.25 -s 0 -d 3 -p tcp -e 1000 -c 0 -i 13 -a 0 -x {0.0 3.0 13 ------- null}
+ -t 0.25 -s 0 -d 3 -p tcp -e 1000 -c 0 -i 14 -a 0 -x {0.0 3.0 14 ------- null}
+ -t 0.25 -s 0 -d 3 -p tcp -e 1000 -c 0 -i 15 -a 0 -x {0.0 3.0 15 ------- null}
+ -t 0.25 -s 0 -d 3 -p tcp -e 1000 -c 0 -i 16 -a 0 -x {0.0 3.0 16 ------- null}
+ -t 0.25 -s 0 -d 3 -p tcp -e 1000 -c 0 -i 17 -a 0 -x {0.0 3.0 17 ------- null}
+ -t 0.25 -s 0 -d 3 -p tcp -e 1000 -c 0 -i 18 -a 0 -x {0.0 3.0 18 ------- null}
+ -t 0.25 -s 0 -d 3 -p tcp -e 1000 -c 0 -i 19 -a 0 -x {0.0 3.0 19 ------- null}
+ -t 0.25 -s 0 -d 3 -p tcp -e 1000 -c 0 -i 20 -a 0 -x {0.0 3.0 20 ------- null}
+ -t 0.25 -s 0 -d 3 -p tcp -e 1000 -c 0 -i 21 -a 0 -x {0.0 3.0 21 ------- null}
+ -t 0.25 -s 0 -d 3 -p tcp -e 1000 -c 0 -i 22 -a 0 -x {0.0 3.0 22 ------- null}
+ -t 0.25 -s 0 -d 3 -p tcp -e 1000 -c 0 -i 23 -a 0 -x {0.0 3.0 23 ------- null}
+ -t 0.25 -s 0 -d 3 -p tcp -e 1000 -c 0 -i 24 -a 0 -x {0.0 3.0 24 ------- null}
+ -t 0.25 -s 0 -d 3 -p tcp -e 1000 -c 0 -i 25 -a 0 -x {0.0 3.0 25 ------- null}
+ -t 0.25 -s 0 -d 3 -p tcp -e 1000 -c 0 -i 26 -a 0 -x {0.0 3.0 26 ------- null}
+ -t 0.25 -s 0 -d 3 -p tcp -e 1000 -c 0 -i 27 -a 0 -x {0.0 3.0 27 ------- null}
+ -t 0.25 -s 0 -d 3 -p tcp -e 1000 -c 0 -i 28 -a 0 -x {0.0 3.0 28 ------- null}
+ -t 0.25 -s 0 -d 3 -p tcp -e 1000 -c 0 -i 29 -a 0 -x {0.0 3.0 29 ------- null}
+ -t 0.25 -s 0 -d 3 -p tcp -e 1000 -c 0 -i 30 -a 0 -x {0.0 3.0 30 ------- null}
+ -t 0.25 -s 0 -d 3 -p tcp -e 1000 -c 0 -i 31 -a 0 -x {0.0 3.0 31 ------- null}
+ -t 0.25 -s 0 -d 3 -p tcp -e 1000 -c 0 -i 32 -a 0 -x {0.0 3.0 32 ------- null}
+ -t 0.25 -s 0 -d 3 -p tcp -e 1000 -c 0 -i 33 -a 0 -x {0.0 3.0 33 ------- null}
+ -t 0.25 -s 0 -d 3 -p tcp -e 1000 -c 0 -i 34 -a 0 -x {0.0 3.0 34 ------- null}
+ -t 0.25 -s 0 -d 3 -p tcp -e 1000 -c 0 -i 35 -a 0 -x {0.0 3.0 35 ------- null}
+ -t 0.25 -s 0 -d 3 -p tcp -e 1000 -c 0 -i 36 -a 0 -x {0.0 3.0 36 ------- null}
+ -t 0.25 -s 1 -d 2 -p tcp -e 960 -c 1 -i 37 -a 1 -x {1.0 2.0 0 ------- null}
- -t 0.25 -s 1 -d 2 -p tcp -e 960 -c 1 -i 37 -a 1 -x {1.0 2.0 0 ------- null}
h -t 0.25 -s 1 -d 2 -p tcp -e 960 -c 1 -i 37 -a 1 -x {1.0 2.0 -1 ------- null}
- -t 0.25256 -s 0 -d 3 -p tcp -e 1000 -c 0 -i 1 -a 0 -x {0.0 3.0 1 ------- null}
h -t 0.25256 -s 0 -d 3 -p tcp -e 1000 -c 0 -i 1 -a 0 -x {0.0 3.0 -1 ------- null}
- -t 0.255226666666667 -s 0 -d 3 -p tcp -e 1000 -c 0 -i 2 -a 0 -x {0.0 3.0 2 ------- null}
h -t 0.255226666666667 -s 0 -d 3 -p tcp -e 1000 -c 0 -i 2 -a 0 -x {0.0 3.0 -1 ------- null}
- -t 0.257893333333333 -s 0 -d 3 -p tcp -e 1000 -c 0 -i 3 -a 0 -x {0.0 3.0 3 ------- null}
h -t 0.257893333333333 -s 0 -d 3 -p tcp -e 1000 -c 0 -i 3 -a 0 -x {0.0 3.0 -1 ------- null}
- -t 0.26056 -s 0 -d 3 -p tcp -e 1000 -c 0 -i 4 -a 0 -x {0.0 3.0 4 ------- null}
h -t 0.26056 -s 0 -d 3 -p tcp -e 1000 -c 0 -i 4 -a 0 -x {0.0 3.0 -1 ------- null}
- -t 0.263226666666667 -s 0 -d 3 -p tcp -e 1000 -c 0 -i 5 -a 0 -x {0.0 3.0 5 ------- null}
h -t 0.263226666666667 -s 0 -d 3 -p tcp -e 1000 -c 0 -i 5 -a 0 -x {0.0 3.0 -1 ------- null}
- -t 0.265893333333333 -s 0 -d 3 -p tcp -e 1000 -c 0 -i 6 -a 0 -x {0.0 3.0 6 ------- null}
h -t 0.265893333333333 -s 0 -d 3 -p tcp -e 1000 -c 0 -i 6 -a 0 -x {0.0 3.0 -1 ------- null}
- -t 0.26856 -s 0 -d 3 -p tcp -e 1000 -c 0 -i 7 -a 0 -x {0.0 3.0 7 ------- null}
h -t 0.26856 -s 0 -d 3 -p tcp -e 1000 -c 0 -i 7 -a 0 -x {0.0 3.0 -1 ------- null}
- -t 0.271226666666667 -s 0 -d 3 -p tcp -e 1000 -c 0 -i 8 -a 0 -x {0.0 3.0 8 ------- null}
h -t 0.271226666666667 -s 0 -d 3 -p tcp -e 1000 -c 0 -i 8 -a 0 -x {0.0 3.0 -1 ------- null}
- -t 0.273893333333333 -s 0 -d 3 -p tcp -e 1000 -c 0 -i 9 -a 0 -x {0.0 3.0 9 ------- null}
h -t 0.273893333333333 -s 0 -d 3 -p tcp -e 1000 -c 0 -i 9 -a 0 -x {0.0 3.0 -1 ------- null}
- -t 0.27656 -s 0 -d 3 -p tcp -e 1000 -c 0 -i 10 -a 0 -x {0.0 3.0 10 ------- null}
h -t 0.27656 -s 0 -d 3 -p tcp -e 1000 -c 0 -i 10 -a 0 -x {0.0 3.0 -1 ------- null}
- -t 0.279226666666667 -s 0 -d 3 -p tcp -e 1000 -c 0 -i 11 -a 0 -x {0.0 3.0 11 ------- null}
h -t 0.279226666666667 -s 0 -d 3 -p tcp -e 1000 -c 0 -i 11 -a 0 -x {0.0 3.0 -1 ------- null}
- -t 0.281893333333333 -s 0 -d 3 -p tcp -e 1000 -c 0 -i 12 -a 0 -x {0.0 3.0 12 ------- null}
h -t 0.281893333333333 -s 0 -d 3 -p tcp -e 1000 -c 0 -i 12 -a 0 -x {0.0 3.0 -1 ------- null}
- -t 0.28456 -s 0 -d 3 -p tcp -e 1000 -c 0 -i 13 -a 0 -x {0.0 3.0 13 ------- null}
h -t 0.28456 -s 0 -d 3 -p tcp -e 1000 -c 0 -i 13 -a 0 -x {0.0 3.0 -1 ------- null}
- -t 0.287226666666666 -s 0 -d 3 -p tcp -e 1000 -c 0 -i 14 -a 0 -x {0.0 3.0 14 ------- null}
h -t 0.287226666666666 -s 0 -d 3 -p tcp -e 1000 -c 0 -i 14 -a 0 -x {0.0 3.0 -1 ------- null}
- -t 0.289893333333333 -s 0 -d 3 -p tcp -e 1000 -c 0 -i 15 -a 0 -x {0.0 3.0 15 ------- null}
h -t 0.289893333333333 -s 0 -d 3 -p tcp -e 1000 -c 0 -i 15 -a 0 -x {0.0 3.0 -1 ------- null}
- -t 0.29256 -s 0 -d 3 -p tcp -e 1000 -c 0 -i 16 -a 0 -x {0.0 3.0 16 ------- null}
h -t 0.29256 -s 0 -d 3 -p tcp -e 1000 -c 0 -i 16 -a 0 -x {0.0 3.0 -1 ------- null}
- -t 0.295226666666666 -s 0 -d 3 -p tcp -e 1000 -c 0 -i 17 -a 0 -x {0.0 3.0 17 ------- null}
h -t 0.295226666666666 -s 0 -d 3 -p tcp -e 1000 -c 0 -i 17 -a 0 -x {0.0 3.0 -1 ------- null}
- -t 0.297893333333333 -s 0 -d 3 -p tcp -e 1000 -c 0 -i 18 -a 0 -x {0.0 3.0 18 ------- null}
h -t 0.297893333333333 -s 0 -d 3 -p tcp -e 1000 -c 0 -i 18 -a 0 -x {0.0 3.0 -1 ------- null}
- -t 0.30056 -s 0 -d 3 -p tcp -e 1000 -c 0 -i 19 -a 0 -x {0.0 3.0 19 ------- null}
h -t 0.30056 -s 0 -d 3 -p tcp -e 1000 -c 0 -i 19 -a 0 -x {0.0 3.0 -1 ------- null}
- -t 0.303226666666666 -s 0 -d 3 -p tcp -e 1000 -c 0 -i 20 -a 0 -x {0.0 3.0 20 ------- null}
h -t 0.303226666666666 -s 0 -d 3 -p tcp -e 1000 -c 0 -i 20 -a 0 -x {0.0 3.0 -1 ------- null}
- -t 0.305893333333333 -s 0 -d 3 -p tcp -e 1000 -c 0 -i 21 -a 0 -x {0.0 3.0 21 ------- null}
h -t 0.305893333333333 -s 0 -d 3 -p tcp -e 1000 -c 0 -i 21 -a 0 -x {0.0 3.0 -1 ------- null}
- -t 0.30856 -s 0 -d 3 -p tcp -e 1000 -c 0 -i 22 -a 0 -x {0.0 3.0 22 ------- null}
h -t 0.30856 -s 0 -d 3 -p tcp -e 1000 -c 0 -i 22 -a 0 -x {0.0 3.0 -1 ------- null}
- -t 0.311226666666666 -s 0 -d 3 -p tcp -e 1000 -c 0 -i 23 -a 0 -x {0.0 3.0 23 ------- null}
h -t 0.311226666666666 -s 0 -d 3 -p tcp -e 1000 -c 0 -i 23 -a 0 -x {0.0 3.0 -1 ------- null}
- -t 0.313893333333333 -s 0 -d 3 -p tcp -e 1000 -c 0 -i 24 -a 0 -x {0.0 3.0 24 ------- null}
h -t 0.313893333333333 -s 0 -d 3 -p tcp -e 1000 -c 0 -i 24 -a 0 -x {0.0 3.0 -1 ------- null}
- -t 0.31656 -s 0 -d 3 -p tcp -e 1000 -c 0 -i 25 -a 0 -x {0.0 3.0 25 ------- null}
h -t 0.31656 -s 0 -d 3 -p tcp -e 1000 -c 0 -i 25 -a 0 -x {0.0 3.0 -1 ------- null}
- -t 0.319226666666666 -s 0 -d 3 -p tcp -e 1000 -c 0 -i 26 -a 0 -x {0.0 3.0 26 ------- null}
h -t 0.319226666666666 -s 0 -d 3 -p tcp -e 1000 -c 0 -i 26 -a 0 -x {0.0 3.0 -1 ------- null}
- -t 0.321893333333333 -s 0 -d 3 -p tcp -e 1000 -c 0 -i 27 -a 0 -x {0.0 3.0 27 ------- null}
h -t 0.321893333333333 -s 0 -d 3 -p tcp -e 1000 -c 0 -i 27 -a 0 -x {0.0 3.0 -1 ------- null}
- -t 0.32456 -s 0 -d 3 -p tcp -e 1000 -c 0 -i 28 -a 0 -x {0.0 3.0 28 ------- null}
h -t 0.32456 -s 0 -d 3 -p tcp -e 1000 -c 0 -i 28 -a 0 -x {0.0 3.0 -1 ------- null}
- -t 0.327226666666666 -s 0 -d 3 -p tcp -e 1000 -c 0 -i 29 -a 0 -x {0.0 3.0 29 ------- null}
h -t 0.327226666666666 -s 0 -d 3 -p tcp -e 1000 -c 0 -i 29 -a 0 -x {0.0 3.0 -1 ------- null}
- -t 0.329893333333333 -s 0 -d 3 -p tcp -e 1000 -c 0 -i 30 -a 0 -x {0.0 3.0 30 ------- null}
h -t 0.329893333333333 -s 0 -d 3 -p tcp -e 1000 -c 0 -i 30 -a 0 -x {0.0 3.0 -1 ------- null}
- -t 0.33256 -s 0 -d 3 -p tcp -e 1000 -c 0 -i 31 -a 0 -x {0.0 3.0 31 ------- null}
h -t 0.33256 -s 0 -d 3 -p tcp -e 1000 -c 0 -i 31 -a 0 -x {0.0 3.0 -1 ------- null}
- -t 0.335226666666666 -s 0 -d 3 -p tcp -e 1000 -c 0 -i 32 -a 0 -x {0.0 3.0 32 ------- null}
h -t 0.335226666666666 -s 0 -d 3 -p tcp -e 1000 -c 0 -i 32 -a 0 -x {0.0 3.0 -1 ------- null}
- -t 0.337893333333333 -s 0 -d 3 -p tcp -e 1000 -c 0 -i 33 -a 0 -x {0.0 3.0 33 ------- null}
h -t 0.337893333333333 -s 0 -d 3 -p tcp -e 1000 -c 0 -i 33 -a 0 -x {0.0 3.0 -1 ------- null}
- -t 0.340559999999999 -s 0 -d 3 -p tcp -e 1000 -c 0 -i 34 -a 0 -x {0.0 3.0 34 ------- null}
h -t 0.340559999999999 -s 0 -d 3 -p tcp -e 1000 -c 0 -i 34 -a 0 -x {0.0 3.0 -1 ------- null}
- -t 0.343226666666666 -s 0 -d 3 -p tcp -e 1000 -c 0 -i 35 -a 0 -x {0.0 3.0 35 ------- null}
h -t 0.343226666666666 -s 0 -d 3 -p tcp -e 1000 -c 0 -i 35 -a 0 -x {0.0 3.0 -1 ------- null}
- -t 0.345893333333333 -s 0 -d 3 -p tcp -e 1000 -c 0 -i 36 -a 0 -x {0.0 3.0 36 ------- null}
h -t 0.345893333333333 -s 0 -d 3 -p tcp -e 1000 -c 0 -i 36 -a 0 -x {0.0 3.0 -1 ------- null}
r -t 0.36256 -s 0 -d 3 -p tcp -e 960 -c 0 -i 0 -a 0 -x {0.0 3.0 0 ------- null}
+ -t 0.36256 -s 3 -d 0 -p ack -e 40 -c 0 -i 38 -a 0 -x {3.0 0.0 0 ------- null}
- -t 0.36256 -s 3 -d 0 -p ack -e 40 -c 0 -i 38 -a 0 -x {3.0 0.0 0 ------- null}
h -t 0.36256 -s 3 -d 0 -p ack -e 40 -c 0 -i 38 -a 0 -x {3.0 0.0 -1 ------- null}
r -t 0.36256 -s 1 -d 2 -p tcp -e 960 -c 1 -i 37 -a 1 -x {1.0 2.0 0 ------- null}
+ -t 0.36256 -s 2 -d 1 -p ack -e 40 -c 1 -i 39 -a 1 -x {2.0 1.0 0 ------- null}
- -t 0.36256 -s 2 -d 1 -p ack -e 40 -c 1 -i 39 -a 1 -x {2.0 1.0 0 ------- null}
h -t 0.36256 -s 2 -d 1 -p ack -e 40 -c 1 -i 39 -a 1 -x {2.0 1.0 -1 ------- null}
r -t 0.365226666666667 -s 0 -d 3 -p tcp -e 1000 -c 0 -i 1 -a 0 -x {0.0 3.0 1 ------- null}
+ -t 0.365226666666667 -s 3 -d 0 -p ack -e 40 -c 0 -i 40 -a 0 -x {3.0 0.0 1 ------- null}
- -t 0.365226666666667 -s 3 -d 0 -p ack -e 40 -c 0 -i 40 -a 0 -x {3.0 0.0 1 ------- null}
h -t 0.365226666666667 -s 3 -d 0 -p ack -e 40 -c 0 -i 40 -a 0 -x {3.0 0.0 -1 ------- null}
r -t 0.367893333333333 -s 0 -d 3 -p tcp -e 1000 -c 0 -i 2 -a 0 -x {0.0 3.0 2 ------- null}
+ -t 0.367893333333333 -s 3 -d 0 -p ack -e 40 -c 0 -i 41 -a 0 -x {3.0 0.0 2 ------- null}
- -t 0.367893333333333 -s 3 -d 0 -p ack -e 40 -c 0 -i 41 -a 0 -x {3.0 0.0 2 ------- null}
h -t 0.367893333333333 -s 3 -d 0 -p ack -e 40 -c 0 -i 41 -a 0 -x {3.0 0.0 -1 ------- null}
r -t 0.37056 -s 0 -d 3 -p tcp -e 1000 -c 0 -i 3 -a 0 -x {0.0 3.0 3 ------- null}
+ -t 0.37056 -s 3 -d 0 -p ack -e 40 -c 0 -i 42 -a 0 -x {3.0 0.0 3 ------- null}
- -t 0.37056 -s 3 -d 0 -p ack -e 40 -c 0 -i 42 -a 0 -x {3.0 0.0 3 ------- null}
h -t 0.37056 -s 3 -d 0 -p ack -e 40 -c 0 -i 42 -a 0 -x {3.0 0.0 -1 ------- null}
r -t 0.373226666666667 -s 0 -d 3 -p tcp -e 1000 -c 0 -i 4 -a 0 -x {0.0 3.0 4 ------- null}
+ -t 0.373226666666667 -s 3 -d 0 -p ack -e 40 -c 0 -i 43 -a 0 -x {3.0 0.0 4 ------- null}
- -t 0.373226666666667 -s 3 -d 0 -p ack -e 40 -c 0 -i 43 -a 0 -x {3.0 0.0 4 ------- null}
h -t 0.373226666666667 -s 3 -d 0 -p ack -e 40 -c 0 -i 43 -a 0 -x {3.0 0.0 -1 ------- null}
r -t 0.375893333333333 -s 0 -d 3 -p tcp -e 1000 -c 0 -i 5 -a 0 -x {0.0 3.0 5 ------- null}
+ -t 0.375893333333333 -s 3 -d 0 -p ack -e 40 -c 0 -i 44 -a 0 -x {3.0 0.0 5 ------- null}
- -t 0.375893333333333 -s 3 -d 0 -p ack -e 40 -c 0 -i 44 -a 0 -x {3.0 0.0 5 ------- null}
h -t 0.375893333333333 -s 3 -d 0 -p ack -e 40 -c 0 -i 44 -a 0 -x {3.0 0.0 -1 ------- null}
r -t 0.37856 -s 0 -d 3 -p tcp -e 1000 -c 0 -i 6 -a 0 -x {0.0 3.0 6 ------- null}
+ -t 0.37856 -s 3 -d 0 -p ack -e 40 -c 0 -i 45 -a 0 -x {3.0 0.0 6 ------- null}
- -t 0.37856 -s 3 -d 0 -p ack -e 40 -c 0 -i 45 -a 0 -x {3.0 0.0 6 ------- null}
h -t 0.37856 -s 3 -d 0 -p ack -e 40 -c 0 -i 45 -a 0 -x {3.0 0.0 -1 ------- null}
r -t 0.381226666666667 -s 0 -d 3 -p tcp -e 1000 -c 0 -i 7 -a 0 -x {0.0 3.0 7 ------- null}
+ -t 0.381226666666667 -s 3 -d 0 -p ack -e 40 -c 0 -i 46 -a 0 -x {3.0 0.0 7 ------- null}
- -t 0.381226666666667 -s 3 -d 0 -p ack -e 40 -c 0 -i 46 -a 0 -x {3.0 0.0 7 ------- null}
h -t 0.381226666666667 -s 3 -d 0 -p ack -e 40 -c 0 -i 46 -a 0 -x {3.0 0.0 -1 ------- null}
r -t 0.383893333333333 -s 0 -d 3 -p tcp -e 1000 -c 0 -i 8 -a 0 -x {0.0 3.0 8 ------- null}
+ -t 0.383893333333333 -s 3 -d 0 -p ack -e 40 -c 0 -i 47 -a 0 -x {3.0 0.0 8 ------- null}
- -t 0.383893333333333 -s 3 -d 0 -p ack -e 40 -c 0 -i 47 -a 0 -x {3.0 0.0 8 ------- null}
h -t 0.383893333333333 -s 3 -d 0 -p ack -e 40 -c 0 -i 47 -a 0 -x {3.0 0.0 -1 ------- null}
r -t 0.38656 -s 0 -d 3 -p tcp -e 1000 -c 0 -i 9 -a 0 -x {0.0 3.0 9 ------- null}
+ -t 0.38656 -s 3 -d 0 -p ack -e 40 -c 0 -i 48 -a 0 -x {3.0 0.0 9 ------- null}
- -t 0.38656 -s 3 -d 0 -p ack -e 40 -c 0 -i 48 -a 0 -x {3.0 0.0 9 ------- null}
h -t 0.38656 -s 3 -d 0 -p ack -e 40 -c 0 -i 48 -a 0 -x {3.0 0.0 -1 ------- null}
r -t 0.389226666666667 -s 0 -d 3 -p tcp -e 1000 -c 0 -i 10 -a 0 -x {0.0 3.0 10 ------- null}
+ -t 0.389226666666667 -s 3 -d 0 -p ack -e 40 -c 0 -i 49 -a 0 -x {3.0 0.0 10 ------- null}
- -t 0.389226666666667 -s 3 -d 0 -p ack -e 40 -c 0 -i 49 -a 0 -x {3.0 0.0 10 ------- null}
h -t 0.389226666666667 -s 3 -d 0 -p ack -e 40 -c 0 -i 49 -a 0 -x {3.0 0.0 -1 ------- null}
r -t 0.391893333333333 -s 0 -d 3 -p tcp -e 1000 -c 0 -i 11 -a 0 -x {0.0 3.0 11 ------- null}
+ -t 0.391893333333333 -s 3 -d 0 -p ack -e 40 -c 0 -i 50 -a 0 -x {3.0 0.0 11 ------- null}
- -t 0.391893333333333 -s 3 -d 0 -p ack -e 40 -c 0 -i 50 -a 0 -x {3.0 0.0 11 ------- null}
h -t 0.391893333333333 -s 3 -d 0 -p ack -e 40 -c 0 -i 50 -a 0 -x {3.0 0.0 -1 ------- null}
r -t 0.39456 -s 0 -d 3 -p tcp -e 1000 -c 0 -i 12 -a 0 -x {0.0 3.0 12 ------- null}
+ -t 0.39456 -s 3 -d 0 -p ack -e 40 -c 0 -i 51 -a 0 -x {3.0 0.0 12 ------- null}
- -t 0.39456 -s 3 -d 0 -p ack -e 40 -c 0 -i 51 -a 0 -x {3.0 0.0 12 ------- null}
h -t 0.39456 -s 3 -d 0 -p ack -e 40 -c 0 -i 51 -a 0 -x {3.0 0.0 -1 ------- null}
r -t 0.397226666666667 -s 0 -d 3 -p tcp -e 1000 -c 0 -i 13 -a 0 -x {0.0 3.0 13 ------- null}
+ -t 0.397226666666667 -s 3 -d 0 -p ack -e 40 -c 0 -i 52 -a 0 -x {3.0 0.0 13 ------- null}
- -t 0.397226666666667 -s 3 -d 0 -p ack -e 40 -c 0 -i 52 -a 0 -x {3.0 0.0 13 ------- null}
h -t 0.397226666666667 -s 3 -d 0 -p ack -e 40 -c 0 -i 52 -a 0 -x {3.0 0.0 -1 ------- null}
r -t 0.399893333333333 -s 0 -d 3 -p tcp -e 1000 -c 0 -i 14 -a 0 -x {0.0 3.0 14 ------- null}
+ -t 0.399893333333333 -s 3 -d 0 -p ack -e 40 -c 0 -i 53 -a 0 -x {3.0 0.0 14 ------- null}
- -t 0.399893333333333 -s 3 -d 0 -p ack -e 40 -c 0 -i 53 -a 0 -x {3.0 0.0 14 ------- null}
h -t 0.399893333333333 -s 3 -d 0 -p ack -e 40 -c 0 -i 53 -a 0 -x {3.0 0.0 -1 ------- null}
r -t 0.40256 -s 0 -d 3 -p tcp -e 1000 -c 0 -i 15 -a 0 -x {0.0 3.0 15 ------- null}
+ -t 0.40256 -s 3 -d 0 -p ack -e 40 -c 0 -i 54 -a 0 -x {3.0 0.0 15 ------- null}
- -t 0.40256 -s 3 -d 0 -p ack -e 40 -c 0 -i 54 -a 0 -x {3.0 0.0 15 ------- null}
h -t 0.40256 -s 3 -d 0 -p ack -e 40 -c 0 -i 54 -a 0 -x {3.0 0.0 -1 ------- null}
r -t 0.405226666666666 -s 0 -d 3 -p tcp -e 1000 -c 0 -i 16 -a 0 -x {0.0 3.0 16 ------- null}
+ -t 0.405226666666666 -s 3 -d 0 -p ack -e 40 -c 0 -i 55 -a 0 -x {3.0 0.0 16 ------- null}
- -t 0.405226666666666 -s 3 -d 0 -p ack -e 40 -c 0 -i 55 -a 0 -x {3.0 0.0 16 ------- null}
h -t 0.405226666666666 -s 3 -d 0 -p ack -e 40 -c 0 -i 55 -a 0 -x {3.0 0.0 -1 ------- null}
r -t 0.407893333333333 -s 0 -d 3 -p tcp -e 1000 -c 0 -i 17 -a 0 -x {0.0 3.0 17 ------- null}
+ -t 0.407893333333333 -s 3 -d 0 -p ack -e 40 -c 0 -i 56 -a 0 -x {3.0 0.0 17 ------- null}
- -t 0.407893333333333 -s 3 -d 0 -p ack -e 40 -c 0 -i 56 -a 0 -x {3.0 0.0 17 ------- null}
h -t 0.407893333333333 -s 3 -d 0 -p ack -e 40 -c 0 -i 56 -a 0 -x {3.0 0.0 -1 ------- null}
r -t 0.41056 -s 0 -d 3 -p tcp -e 1000 -c 0 -i 18 -a 0 -x {0.0 3.0 18 ------- null}
+ -t 0.41056 -s 3 -d 0 -p ack -e 40 -c 0 -i 57 -a 0 -x {3.0 0.0 18 ------- null}
- -t 0.41056 -s 3 -d 0 -p ack -e 40 -c 0 -i 57 -a 0 -x {3.0 0.0 18 ------- null}
h -t 0.41056 -s 3 -d 0 -p ack -e 40 -c 0 -i 57 -a 0 -x {3.0 0.0 -1 ------- null}
r -t 0.413226666666666 -s 0 -d 3 -p tcp -e 1000 -c 0 -i 19 -a 0 -x {0.0 3.0 19 ------- null}
+ -t 0.413226666666666 -s 3 -d 0 -p ack -e 40 -c 0 -i 58 -a 0 -x {3.0 0.0 19 ------- null}
- -t 0.413226666666666 -s 3 -d 0 -p ack -e 40 -c 0 -i 58 -a 0 -x {3.0 0.0 19 ------- null}
h -t 0.413226666666666 -s 3 -d 0 -p ack -e 40 -c 0 -i 58 -a 0 -x {3.0 0.0 -1 ------- null}
r -t 0.415893333333333 -s 0 -d 3 -p tcp -e 1000 -c 0 -i 20 -a 0 -x {0.0 3.0 20 ------- null}
+ -t 0.415893333333333 -s 3 -d 0 -p ack -e 40 -c 0 -i 59 -a 0 -x {3.0 0.0 20 ------- null}
- -t 0.415893333333333 -s 3 -d 0 -p ack -e 40 -c 0 -i 59 -a 0 -x {3.0 0.0 20 ------- null}
h -t 0.415893333333333 -s 3 -d 0 -p ack -e 40 -c 0 -i 59 -a 0 -x {3.0 0.0 -1 ------- null}
r -t 0.41856 -s 0 -d 3 -p tcp -e 1000 -c 0 -i 21 -a 0 -x {0.0 3.0 21 ------- null}
+ -t 0.41856 -s 3 -d 0 -p ack -e 40 -c 0 -i 60 -a 0 -x {3.0 0.0 21 ------- null}
- -t 0.41856 -s 3 -d 0 -p ack -e 40 -c 0 -i 60 -a 0 -x {3.0 0.0 21 ------- null}
h -t 0.41856 -s 3 -d 0 -p ack -e 40 -c 0 -i 60 -a 0 -x {3.0 0.0 -1 ------- null}
r -t 0.421226666666666 -s 0 -d 3 -p tcp -e 1000 -c 0 -i 22 -a 0 -x {0.0 3.0 22 ------- null}
+ -t 0.421226666666666 -s 3 -d 0 -p ack -e 40 -c 0 -i 61 -a 0 -x {3.0 0.0 22 ------- null}
- -t 0.421226666666666 -s 3 -d 0 -p ack -e 40 -c 0 -i 61 -a 0 -x {3.0 0.0 22 ------- null}
h -t 0.421226666666666 -s 3 -d 0 -p ack -e 40 -c 0 -i 61 -a 0 -x {3.0 0.0 -1 ------- null}
r -t 0.423893333333333 -s 0 -d 3 -p tcp -e 1000 -c 0 -i 23 -a 0 -x {0.0 3.0 23 ------- null}
+ -t 0.423893333333333 -s 3 -d 0 -p ack -e 40 -c 0 -i 62 -a 0 -x {3.0 0.0 23 ------- null}
- -t 0.423893333333333 -s 3 -d 0 -p ack -e 40 -c 0 -i 62 -a 0 -x {3.0 0.0 23 ------- null}
h -t 0.423893333333333 -s 3 -d 0 -p ack -e 40 -c 0 -i 62 -a 0 -x {3.0 0.0 -1 ------- null}
r -t 0.42656 -s 0 -d 3 -p tcp -e 1000 -c 0 -i 24 -a 0 -x {0.0 3.0 24 ------- null}
+ -t 0.42656 -s 3 -d 0 -p ack -e 40 -c 0 -i 63 -a 0 -x {3.0 0.0 24 ------- null}
- -t 0.42656 -s 3 -d 0 -p ack -e 40 -c 0 -i 63 -a 0 -x {3.0 0.0 24 ------- null}
h -t 0.42656 -s 3 -d 0 -p ack -e 40 -c 0 -i 63 -a 0 -x {3.0 0.0 -1 ------- null}
r -t 0.429226666666666 -s 0 -d 3 -p tcp -e 1000 -c 0 -i 25 -a 0 -x {0.0 3.0 25 ------- null}
+ -t 0.429226666666666 -s 3 -d 0 -p ack -e 40 -c 0 -i 64 -a 0 -x {3.0 0.0 25 ------- null}
- -t 0.429226666666666 -s 3 -d 0 -p ack -e 40 -c 0 -i 64 -a 0 -x {3.0 0.0 25 ------- null}
h -t 0.429226666666666 -s 3 -d 0 -p ack -e 40 -c 0 -i 64 -a 0 -x {3.0 0.0 -1 ------- null}
r -t 0.431893333333333 -s 0 -d 3 -p tcp -e 1000 -c 0 -i 26 -a 0 -x {0.0 3.0 26 ------- null}
+ -t 0.431893333333333 -s 3 -d 0 -p ack -e 40 -c 0 -i 65 -a 0 -x {3.0 0.0 26 ------- null}
- -t 0.431893333333333 -s 3 -d 0 -p ack -e 40 -c 0 -i 65 -a 0 -x {3.0 0.0 26 ------- null}
h -t 0.431893333333333 -s 3 -d 0 -p ack -e 40 -c 0 -i 65 -a 0 -x {3.0 0.0 -1 ------- null}
r -t 0.43456 -s 0 -d 3 -p tcp -e 1000 -c 0 -i 27 -a 0 -x {0.0 3.0 27 ------- null}
+ -t 0.43456 -s 3 -d 0 -p ack -e 40 -c 0 -i 66 -a 0 -x {3.0 0.0 27 ------- null}
- -t 0.43456 -s 3 -d 0 -p ack -e 40 -c 0 -i 66 -a 0 -x {3.0 0.0 27 ------- null}
h -t 0.43456 -s 3 -d 0 -p ack -e 40 -c 0 -i 66 -a 0 -x {3.0 0.0 -1 ------- null}
r -t 0.437226666666666 -s 0 -d 3 -p tcp -e 1000 -c 0 -i 28 -a 0 -x {0.0 3.0 28 ------- null}
+ -t 0.437226666666666 -s 3 -d 0 -p ack -e 40 -c 0 -i 67 -a 0 -x {3.0 0.0 28 ------- null}
- -t 0.437226666666666 -s 3 -d 0 -p ack -e 40 -c 0 -i 67 -a 0 -x {3.0 0.0 28 ------- null}
h -t 0.437226666666666 -s 3 -d 0 -p ack -e 40 -c 0 -i 67 -a 0 -x {3.0 0.0 -1 ------- null}
r -t 0.439893333333333 -s 0 -d 3 -p tcp -e 1000 -c 0 -i 29 -a 0 -x {0.0 3.0 29 ------- null}
+ -t 0.439893333333333 -s 3 -d 0 -p ack -e 40 -c 0 -i 68 -a 0 -x {3.0 0.0 29 ------- null}
- -t 0.439893333333333 -s 3 -d 0 -p ack -e 40 -c 0 -i 68 -a 0 -x {3.0 0.0 29 ------- null}
h -t 0.439893333333333 -s 3 -d 0 -p ack -e 40 -c 0 -i 68 -a 0 -x {3.0 0.0 -1 ------- null}
r -t 0.44256 -s 0 -d 3 -p tcp -e 1000 -c 0 -i 30 -a 0 -x {0.0 3.0 30 ------- null}
+ -t 0.44256 -s 3 -d 0 -p ack -e 40 -c 0 -i 69 -a 0 -x {3.0 0.0 30 ------- null}
- -t 0.44256 -s 3 -d 0 -p ack -e 40 -c 0 -i 69 -a 0 -x {3.0 0.0 30 ------- null}
h -t 0.44256 -s 3 -d 0 -p ack -e 40 -c 0 -i 69 -a 0 -x {3.0 0.0 -1 ------- null}
r -t 0.445226666666666 -s 0 -d 3 -p tcp -e 1000 -c 0 -i 31 -a 0 -x {0.0 3.0 31 ------- null}
+ -t 0.445226666666666 -s 3 -d 0 -p ack -e 40 -c 0 -i 70 -a 0 -x {3.0 0.0 31 ------- null}
- -t 0.445226666666666 -s 3 -d 0 -p ack -e 40 -c 0 -i 70 -a 0 -x {3.0 0.0 31 ------- null}
h -t 0.445226666666666 -s 3 -d 0 -p ack -e 40 -c 0 -i 70 -a 0 -x {3.0 0.0 -1 ------- null}
r -t 0.447893333333333 -s 0 -d 3 -p tcp -e 1000 -c 0 -i 32 -a 0 -x {0.0 3.0 32 ------- null}
+ -t 0.447893333333333 -s 3 -d 0 -p ack -e 40 -c 0 -i 71 -a 0 -x {3.0 0.0 32 ------- null}
- -t 0.447893333333333 -s 3 -d 0 -p ack -e 40 -c 0 -i 71 -a 0 -x {3.0 0.0 32 ------- null}
h -t 0.447893333333333 -s 3 -d 0 -p ack -e 40 -c 0 -i 71 -a 0 -x {3.0 0.0 -1 ------- null}
r -t 0.45056 -s 0 -d 3 -p tcp -e 1000 -c 0 -i 33 -a 0 -x {0.0 3.0 33 ------- null}
+ -t 0.45056 -s 3 -d 0 -p ack -e 40 -c 0 -i 72 -a 0 -x {3.0 0.0 33 ------- null}
- -t 0.45056 -s 3 -d 0 -p ack -e 40 -c 0 -i 72 -a 0 -x {3.0 0.0 33 ------- null}
h -t 0.45056 -s 3 -d 0 -p ack -e 40 -c 0 -i 72 -a 0 -x {3.0 0.0 -1 ------- null}
r -t 0.453226666666666 -s 0 -d 3 -p tcp -e 1000 -c 0 -i 34 -a 0 -x {0.0 3.0 34 ------- null}
+ -t 0.453226666666666 -s 3 -d 0 -p ack -e 40 -c 0 -i 73 -a 0 -x {3.0 0.0 34 ------- null}
- -t 0.453226666666666 -s 3 -d 0 -p ack -e 40 -c 0 -i 73 -a 0 -x {3.0 0.0 34 ------- null}
h -t 0.453226666666666 -s 3 -d 0 -p ack -e 40 -c 0 -i 73 -a 0 -x {3.0 0.0 -1 ------- null}
r -t 0.455893333333333 -s 0 -d 3 -p tcp -e 1000 -c 0 -i 35 -a 0 -x {0.0 3.0 35 ------- null}
+ -t 0.455893333333333 -s 3 -d 0 -p ack -e 40 -c 0 -i 74 -a 0 -x {3.0 0.0 35 ------- null}
- -t 0.455893333333333 -s 3 -d 0 -p ack -e 40 -c 0 -i 74 -a 0 -x {3.0 0.0 35 ------- null}
h -t 0.455893333333333 -s 3 -d 0 -p ack -e 40 -c 0 -i 74 -a 0 -x {3.0 0.0 -1 ------- null}
r -t 0.458559999999999 -s 0 -d 3 -p tcp -e 1000 -c 0 -i 36 -a 0 -x {0.0 3.0 36 ------- null}
+ -t 0.458559999999999 -s 3 -d 0 -p ack -e 40 -c 0 -i 75 -a 0 -x {3.0 0.0 36 ------- null}
- -t 0.458559999999999 -s 3 -d 0 -p ack -e 40 -c 0 -i 75 -a 0 -x {3.0 0.0 36 ------- null}
h -t 0.458559999999999 -s 3 -d 0 -p ack -e 40 -c 0 -i 75 -a 0 -x {3.0 0.0 -1 ------- null}
r -t 0.472666666666667 -s 3 -d 0 -p ack -e 40 -c 0 -i 38 -a 0 -x {3.0 0.0 0 ------- null}
+ -t 0.472666666666667 -s 0 -d 3 -p tcp -e 1000 -c 0 -i 76 -a 0 -x {0.0 3.0 37 ------- null}
- -t 0.472666666666667 -s 0 -d 3 -p tcp -e 1000 -c 0 -i 76 -a 0 -x {0.0 3.0 37 ------- null}
h -t 0.472666666666667 -s 0 -d 3 -p tcp -e 1000 -c 0 -i 76 -a 0 -x {0.0 3.0 -1 ------- null}
r -t 0.472666666666667 -s 2 -d 1 -p ack -e 40 -c 1 -i 39 -a 1 -x {2.0 1.0 0 ------- null}
+ -t 0.472666666666667 -s 1 -d 2 -p tcp -e 1000 -c 1 -i 77 -a 1 -x {1.0 2.0 1 ------- null}
- -t 0.472666666666667 -s 1 -d 2 -p tcp -e 1000 -c 1 -i 77 -a 1 -x {1.0 2.0 1 ------- null}
h -t 0.472666666666667 -s 1 -d 2 -p tcp -e 1000 -c 1 -i 77 -a 1 -x {1.0 2.0 -1 ------- null}
r -t 0.475333333333333 -s 3 -d 0 -p ack -e 40 -c 0 -i 40 -a 0 -x {3.0 0.0 1 ------- null}
+ -t 0.475333333333333 -s 0 -d 3 -p tcp -e 1000 -c 0 -i 78 -a 0 -x {0.0 3.0 38 ------- null}
- -t 0.475333333333333 -s 0 -d 3 -p tcp -e 1000 -c 0 -i 78 -a 0 -x {0.0 3.0 38 ------- null}
h -t 0.475333333333333 -s 0 -d 3 -p tcp -e 1000 -c 0 -i 78 -a 0 -x {0.0 3.0 -1 ------- null}
r -t 0.478 -s 3 -d 0 -p ack -e 40 -c 0 -i 41 -a 0 -x {3.0 0.0 2 ------- null}
+ -t 0.478 -s 0 -d 3 -p tcp -e 1000 -c 0 -i 79 -a 0 -x {0.0 3.0 39 ------- null}
- -t 0.478 -s 0 -d 3 -p tcp -e 1000 -c 0 -i 79 -a 0 -x {0.0 3.0 39 ------- null}
h -t 0.478 -s 0 -d 3 -p tcp -e 1000 -c 0 -i 79 -a 0 -x {0.0 3.0 -1 ------- null}
r -t 0.480666666666667 -s 3 -d 0 -p ack -e 40 -c 0 -i 42 -a 0 -x {3.0 0.0 3 ------- null}
+ -t 0.480666666666667 -s 0 -d 3 -p tcp -e 1000 -c 0 -i 80 -a 0 -x {0.0 3.0 40 ------- null}
- -t 0.480666666666667 -s 0 -d 3 -p tcp -e 1000 -c 0 -i 80 -a 0 -x {0.0 3.0 40 ------- null}
h -t 0.480666666666667 -s 0 -d 3 -p tcp -e 1000 -c 0 -i 80 -a 0 -x {0.0 3.0 -1 ------- null}
r -t 0.483333333333333 -s 3 -d 0 -p ack -e 40 -c 0 -i 43 -a 0 -x {3.0 0.0 4 ------- null}
+ -t 0.483333333333333 -s 0 -d 3 -p tcp -e 1000 -c 0 -i 81 -a 0 -x {0.0 3.0 41 ------- null}
- -t 0.483333333333333 -s 0 -d 3 -p tcp -e 1000 -c 0 -i 81 -a 0 -x {0.0 3.0 41 ------- null}
h -t 0.483333333333333 -s 0 -d 3 -p tcp -e 1000 -c 0 -i 81 -a 0 -x {0.0 3.0 -1 ------- null}
r -t 0.486 -s 3 -d 0 -p ack -e 40 -c 0 -i 44 -a 0 -x {3.0 0.0 5 ------- null}
+ -t 0.486 -s 0 -d 3 -p tcp -e 1000 -c 0 -i 82 -a 0 -x {0.0 3.0 42 ------- null}
- -t 0.486 -s 0 -d 3 -p tcp -e 1000 -c 0 -i 82 -a 0 -x {0.0 3.0 42 ------- null}
h -t 0.486 -s 0 -d 3 -p tcp -e 1000 -c 0 -i 82 -a 0 -x {0.0 3.0 -1 ------- null}
r -t 0.488666666666667 -s 3 -d 0 -p ack -e 40 -c 0 -i 45 -a 0 -x {3.0 0.0 6 ------- null}
+ -t 0.488666666666667 -s 0 -d 3 -p tcp -e 1000 -c 0 -i 83 -a 0 -x {0.0 3.0 43 ------- null}
- -t 0.488666666666667 -s 0 -d 3 -p tcp -e 1000 -c 0 -i 83 -a 0 -x {0.0 3.0 43 ------- null}
h -t 0.488666666666667 -s 0 -d 3 -p tcp -e 1000 -c 0 -i 83 -a 0 -x {0.0 3.0 -1 ------- null}
r -t 0.491333333333333 -s 3 -d 0 -p ack -e 40 -c 0 -i 46 -a 0 -x {3.0 0.0 7 ------- null}
+ -t 0.491333333333333 -s 0 -d 3 -p tcp -e 1000 -c 0 -i 84 -a 0 -x {0.0 3.0 44 ------- null}
- -t 0.491333333333333 -s 0 -d 3 -p tcp -e 1000 -c 0 -i 84 -a 0 -x {0.0 3.0 44 ------- null}
h -t 0.491333333333333 -s 0 -d 3 -p tcp -e 1000 -c 0 -i 84 -a 0 -x {0.0 3.0 -1 ------- null}
r -t 0.494 -s 3 -d 0 -p ack -e 40 -c 0 -i 47 -a 0 -x {3.0 0.0 8 ------- null}
+ -t 0.494 -s 0 -d 3 -p tcp -e 1000 -c 0 -i 85 -a 0 -x {0.0 3.0 45 ------- null}
- -t 0.494 -s 0 -d 3 -p tcp -e 1000 -c 0 -i 85 -a 0 -x {0.0 3.0 45 ------- null}
h -t 0.494 -s 0 -d 3 -p tcp -e 1000 -c 0 -i 85 -a 0 -x {0.0 3.0 -1 ------- null}
r -t 0.496666666666667 -s 3 -d 0 -p ack -e 40 -c 0 -i 48 -a 0 -x {3.0 0.0 9 ------- null}
+ -t 0.496666666666667 -s 0 -d 3 -p tcp -e 1000 -c 0 -i 86 -a 0 -x {0.0 3.0 46 ------- null}
- -t 0.496666666666667 -s 0 -d 3 -p tcp -e 1000 -c 0 -i 86 -a 0 -x {0.0 3.0 46 ------- null}
h -t 0.496666666666667 -s 0 -d 3 -p tcp -e 1000 -c 0 -i 86 -a 0 -x {0.0 3.0 -1 ------- null}
r -t 0.499333333333333 -s 3 -d 0 -p ack -e 40 -c 0 -i 49 -a 0 -x {3.0 0.0 10 ------- null}
+ -t 0.499333333333333 -s 0 -d 3 -p tcp -e 1000 -c 0 -i 87 -a 0 -x {0.0 3.0 47 ------- null}
- -t 0.499333333333333 -s 0 -d 3 -p tcp -e 1000 -c 0 -i 87 -a 0 -x {0.0 3.0 47 ------- null}
h -t 0.499333333333333 -s 0 -d 3 -p tcp -e 1000 -c 0 -i 87 -a 0 -x {0.0 3.0 -1 ------- null}
r -t 0.502 -s 3 -d 0 -p ack -e 40 -c 0 -i 50 -a 0 -x {3.0 0.0 11 ------- null}
+ -t 0.502 -s 0 -d 3 -p tcp -e 1000 -c 0 -i 88 -a 0 -x {0.0 3.0 48 ------- null}
- -t 0.502 -s 0 -d 3 -p tcp -e 1000 -c 0 -i 88 -a 0 -x {0.0 3.0 48 ------- null}
h -t 0.502 -s 0 -d 3 -p tcp -e 1000 -c 0 -i 88 -a 0 -x {0.0 3.0 -1 ------- null}
r -t 0.504666666666666 -s 3 -d 0 -p ack -e 40 -c 0 -i 51 -a 0 -x {3.0 0.0 12 ------- null}
+ -t 0.504666666666666 -s 0 -d 3 -p tcp -e 1000 -c 0 -i 89 -a 0 -x {0.0 3.0 49 ------- null}
- -t 0.504666666666667 -s 0 -d 3 -p tcp -e 1000 -c 0 -i 89 -a 0 -x {0.0 3.0 49 ------- null}
h -t 0.504666666666667 -s 0 -d 3 -p tcp -e 1000 -c 0 -i 89 -a 0 -x {0.0 3.0 -1 ------- null}
r -t 0.507333333333333 -s 3 -d 0 -p ack -e 40 -c 0 -i 52 -a 0 -x {3.0 0.0 13 ------- null}
+ -t 0.507333333333333 -s 0 -d 3 -p tcp -e 1000 -c 0 -i 90 -a 0 -x {0.0 3.0 50 ------- null}
- -t 0.507333333333333 -s 0 -d 3 -p tcp -e 1000 -c 0 -i 90 -a 0 -x {0.0 3.0 50 ------- null}
h -t 0.507333333333333 -s 0 -d 3 -p tcp -e 1000 -c 0 -i 90 -a 0 -x {0.0 3.0 -1 ------- null}
r -t 0.51 -s 3 -d 0 -p ack -e 40 -c 0 -i 53 -a 0 -x {3.0 0.0 14 ------- null}
+ -t 0.51 -s 0 -d 3 -p tcp -e 1000 -c 0 -i 91 -a 0 -x {0.0 3.0 51 ------- null}
- -t 0.51 -s 0 -d 3 -p tcp -e 1000 -c 0 -i 91 -a 0 -x {0.0 3.0 51 ------- null}
h -t 0.51 -s 0 -d 3 -p tcp -e 1000 -c 0 -i 91 -a 0 -x {0.0 3.0 -1 ------- null}
r -t 0.512666666666666 -s 3 -d 0 -p ack -e 40 -c 0 -i 54 -a 0 -x {3.0 0.0 15 ------- null}