+ 0.25 0 3 tcp 960 ------- 0 0.0 3.0 0 0
- 0.25 0 3 tcp 960 ------- 0 0.0 3.0 0 0
+ 0.25 0 3 tcp 1000 ------- 0 0.0 3.0 1 1
+ 0.25 0 3 tcp 1000 ------- 0 0.0 3.0 2 2
+ 0.25 0 3 tcp 1000 ------- 0 0.0 3.0 3 3
+ 0.25 0 3 tcp 1000 ------- 0 0.0 3.0 4 4
+ 0.25 0 3 tcp 1000 ------- 0 0.0 3.0 5 5
+ 0.25 0 3 tcp 1000 ------- 0 0.0 3.0 6 6
+ 0.25 0 3 tcp 1000 ------- 0 0.0 3.0 7 7
+ 0.25 0 3 tcp 1000 ------- 0 0.0 3.0 8 8
+ 0.25 0 3 tcp 1000 ------- 0 0.0 3.0 9 9
+ 0.25 1 2 tcp 960 ------- 1 1.0 2.0 0 10
- 0.25 1 2 tcp 960 ------- 1 1.0 2.0 0 10
- 0.25256 0 3 tcp 1000 ------- 0 0.0 3.0 1 1
- 0.255227 0 3 tcp 1000 ------- 0 0.0 3.0 2 2
- 0.257893 0 3 tcp 1000 ------- 0 0.0 3.0 3 3
- 0.26056 0 3 tcp 1000 ------- 0 0.0 3.0 4 4
- 0.263227 0 3 tcp 1000 ------- 0 0.0 3.0 5 5
- 0.265893 0 3 tcp 1000 ------- 0 0.0 3.0 6 6
- 0.26856 0 3 tcp 1000 ------- 0 0.0 3.0 7 7
- 0.271227 0 3 tcp 1000 ------- 0 0.0 3.0 8 8
- 0.273893 0 3 tcp 1000 ------- 0 0.0 3.0 9 9
r 0.30056 0 3 tcp 960 ------- 0 0.0 3.0 0 0
+ 0.30056 3 0 ack 40 ------- 0 3.0 0.0 0 11
- 0.30056 3 0 ack 40 ------- 0 3.0 0.0 0 11
r 0.30056 1 2 tcp 960 ------- 1 1.0 2.0 0 10
+ 0.30056 2 1 ack 40 ------- 1 2.0 1.0 0 12
- 0.30056 2 1 ack 40 ------- 1 2.0 1.0 0 12
r 0.303227 0 3 tcp 1000 ------- 0 0.0 3.0 1 1
+ 0.303227 3 0 ack 40 ------- 0 3.0 0.0 1 13
- 0.303227 3 0 ack 40 ------- 0 3.0 0.0 1 13
r 0.305893 0 3 tcp 1000 ------- 0 0.0 3.0 2 2
+ 0.305893 3 0 ack 40 ------- 0 3.0 0.0 2 14
- 0.305893 3 0 ack 40 ------- 0 3.0 0.0 2 14
r 0.30856 0 3 tcp 1000 ------- 0 0.0 3.0 3 3
+ 0.30856 3 0 ack 40 ------- 0 3.0 0.0 3 15
- 0.30856 3 0 ack 40 ------- 0 3.0 0.0 3 15
r 0.311227 0 3 tcp 1000 ------- 0 0.0 3.0 4 4
+ 0.311227 3 0 ack 40 ------- 0 3.0 0.0 4 16
- 0.311227 3 0 ack 40 ------- 0 3.0 0.0 4 16
r 0.313893 0 3 tcp 1000 ------- 0 0.0 3.0 5 5
+ 0.313893 3 0 ack 40 ------- 0 3.0 0.0 5 17
- 0.313893 3 0 ack 40 ------- 0 3.0 0.0 5 17
r 0.31656 0 3 tcp 1000 ------- 0 0.0 3.0 6 6
+ 0.31656 3 0 ack 40 ------- 0 3.0 0.0 6 18
- 0.31656 3 0 ack 40 ------- 0 3.0 0.0 6 18
r 0.319227 0 3 tcp 1000 ------- 0 0.0 3.0 7 7
+ 0.319227 3 0 ack 40 ------- 0 3.0 0.0 7 19
- 0.319227 3 0 ack 40 ------- 0 3.0 0.0 7 19
r 0.321893 0 3 tcp 1000 ------- 0 0.0 3.0 8 8
+ 0.321893 3 0 ack 40 ------- 0 3.0 0.0 8 20
- 0.321893 3 0 ack 40 ------- 0 3.0 0.0 8 20
r 0.32456 0 3 tcp 1000 ------- 0 0.0 3.0 9 9
+ 0.32456 3 0 ack 40 ------- 0 3.0 0.0 9 21
- 0.32456 3 0 ack 40 ------- 0 3.0 0.0 9 21
r 0.348667 3 0 ack 40 ------- 0 3.0 0.0 0 11
+ 0.348667 0 3 tcp 1000 ------- 0 0.0 3.0 10 22
- 0.348667 0 3 tcp 1000 ------- 0 0.0 3.0 10 22
r 0.348667 2 1 ack 40 ------- 1 2.0 1.0 0 12
+ 0.348667 1 2 tcp 1000 ------- 1 1.0 2.0 1 23
- 0.348667 1 2 tcp 1000 ------- 1 1.0 2.0 1 23
r 0.351333 3 0 ack 40 ------- 0 3.0 0.0 1 13
+ 0.351333 0 3 tcp 1000 ------- 0 0.0 3.0 11 24
- 0.351333 0 3 tcp 1000 ------- 0 0.0 3.0 11 24
r 0.354 3 0 ack 40 ------- 0 3.0 0.0 2 14
+ 0.354 0 3 tcp 1000 ------- 0 0.0 3.0 12 25
- 0.354 0 3 tcp 1000 ------- 0 0.0 3.0 12 25
r 0.356667 3 0 ack 40 ------- 0 3.0 0.0 3 15
+ 0.356667 0 3 tcp 1000 ------- 0 0.0 3.0 13 26
- 0.356667 0 3 tcp 1000 ------- 0 0.0 3.0 13 26
r 0.359333 3 0 ack 40 ------- 0 3.0 0.0 4 16
+ 0.359333 0 3 tcp 1000 ------- 0 0.0 3.0 14 27
- 0.359333 0 3 tcp 1000 ------- 0 0.0 3.0 14 27
r 0.362 3 0 ack 40 ------- 0 3.0 0.0 5 17
+ 0.362 0 3 tcp 1000 ------- 0 0.0 3.0 15 28
- 0.362 0 3 tcp 1000 ------- 0 0.0 3.0 15 28
r 0.364667 3 0 ack 40 ------- 0 3.0 0.0 6 18
+ 0.364667 0 3 tcp 1000 ------- 0 0.0 3.0 16 29
- 0.364667 0 3 tcp 1000 ------- 0 0.0 3.0 16 29
r 0.367333 3 0 ack 40 ------- 0 3.0 0.0 7 19
+ 0.367333 0 3 tcp 1000 ------- 0 0.0 3.0 17 30
- 0.367333 0 3 tcp 1000 ------- 0 0.0 3.0 17 30
r 0.37 3 0 ack 40 ------- 0 3.0 0.0 8 20
+ 0.37 0 3 tcp 1000 ------- 0 0.0 3.0 18 31
- 0.37 0 3 tcp 1000 ------- 0 0.0 3.0 18 31
r 0.372667 3 0 ack 40 ------- 0 3.0 0.0 9 21
+ 0.372667 0 3 tcp 1000 ------- 0 0.0 3.0 19 32
- 0.372667 0 3 tcp 1000 ------- 0 0.0 3.0 19 32
r 0.399333 0 3 tcp 1000 ------- 0 0.0 3.0 10 22
+ 0.399333 3 0 ack 40 ------- 0 3.0 0.0 10 33
- 0.399333 3 0 ack 40 ------- 0 3.0 0.0 10 33
r 0.399333 1 2 tcp 1000 ------- 1 1.0 2.0 1 23
+ 0.399333 2 1 ack 40 ------- 1 2.0 1.0 1 34
- 0.399333 2 1 ack 40 ------- 1 2.0 1.0 1 34
r 0.402 0 3 tcp 1000 ------- 0 0.0 3.0 11 24
+ 0.402 3 0 ack 40 ------- 0 3.0 0.0 11 35
- 0.402 3 0 ack 40 ------- 0 3.0 0.0 11 35
r 0.404667 0 3 tcp 1000 ------- 0 0.0 3.0 12 25
+ 0.404667 3 0 ack 40 ------- 0 3.0 0.0 12 36
- 0.404667 3 0 ack 40 ------- 0 3.0 0.0 12 36
r 0.407333 0 3 tcp 1000 ------- 0 0.0 3.0 13 26
+ 0.407333 3 0 ack 40 ------- 0 3.0 0.0 13 37
- 0.407333 3 0 ack 40 ------- 0 3.0 0.0 13 37
r 0.41 0 3 tcp 1000 ------- 0 0.0 3.0 14 27
+ 0.41 3 0 ack 40 ------- 0 3.0 0.0 14 38
- 0.41 3 0 ack 40 ------- 0 3.0 0.0 14 38
r 0.412667 0 3 tcp 1000 ------- 0 0.0 3.0 15 28
+ 0.412667 3 0 ack 40 ------- 0 3.0 0.0 15 39
- 0.412667 3 0 ack 40 ------- 0 3.0 0.0 15 39
r 0.415333 0 3 tcp 1000 ------- 0 0.0 3.0 16 29
+ 0.415333 3 0 ack 40 ------- 0 3.0 0.0 16 40
- 0.415333 3 0 ack 40 ------- 0 3.0 0.0 16 40
r 0.418 0 3 tcp 1000 ------- 0 0.0 3.0 17 30
+ 0.418 3 0 ack 40 ------- 0 3.0 0.0 17 41
- 0.418 3 0 ack 40 ------- 0 3.0 0.0 17 41
r 0.420667 0 3 tcp 1000 ------- 0 0.0 3.0 18 31
+ 0.420667 3 0 ack 40 ------- 0 3.0 0.0 18 42
- 0.420667 3 0 ack 40 ------- 0 3.0 0.0 18 42
r 0.423333 0 3 tcp 1000 ------- 0 0.0 3.0 19 32
+ 0.423333 3 0 ack 40 ------- 0 3.0 0.0 19 43
- 0.423333 3 0 ack 40 ------- 0 3.0 0.0 19 43
r 0.44744 3 0 ack 40 ------- 0 3.0 0.0 10 33
+ 0.44744 0 3 tcp 1000 ------- 0 0.0 3.0 20 44
- 0.44744 0 3 tcp 1000 ------- 0 0.0 3.0 20 44
r 0.44744 2 1 ack 40 ------- 1 2.0 1.0 1 34
+ 0.44744 1 2 tcp 1000 ------- 1 1.0 2.0 2 45
- 0.44744 1 2 tcp 1000 ------- 1 1.0 2.0 2 45
r 0.450107 3 0 ack 40 ------- 0 3.0 0.0 11 35
+ 0.450107 0 3 tcp 1000 ------- 0 0.0 3.0 21 46
- 0.450107 0 3 tcp 1000 ------- 0 0.0 3.0 21 46
r 0.452773 3 0 ack 40 ------- 0 3.0 0.0 12 36
+ 0.452773 0 3 tcp 1000 ------- 0 0.0 3.0 22 47
- 0.452773 0 3 tcp 1000 ------- 0 0.0 3.0 22 47
r 0.45544 3 0 ack 40 ------- 0 3.0 0.0 13 37
+ 0.45544 0 3 tcp 1000 ------- 0 0.0 3.0 23 48
- 0.45544 0 3 tcp 1000 ------- 0 0.0 3.0 23 48
r 0.458107 3 0 ack 40 ------- 0 3.0 0.0 14 38
+ 0.458107 0 3 tcp 1000 ------- 0 0.0 3.0 24 49
- 0.458107 0 3 tcp 1000 ------- 0 0.0 3.0 24 49
r 0.460773 3 0 ack 40 ------- 0 3.0 0.0 15 39
+ 0.460773 0 3 tcp 1000 ------- 0 0.0 3.0 25 50
- 0.460773 0 3 tcp 1000 ------- 0 0.0 3.0 25 50
r 0.46344 3 0 ack 40 ------- 0 3.0 0.0 16 40
+ 0.46344 0 3 tcp 1000 ------- 0 0.0 3.0 26 51
- 0.46344 0 3 tcp 1000 ------- 0 0.0 3.0 26 51
r 0.466107 3 0 ack 40 ------- 0 3.0 0.0 17 41
+ 0.466107 0 3 tcp 1000 ------- 0 0.0 3.0 27 52
- 0.466107 0 3 tcp 1000 ------- 0 0.0 3.0 27 52
r 0.468773 3 0 ack 40 ------- 0 3.0 0.0 18 42
+ 0.468773 0 3 tcp 1000 ------- 0 0.0 3.0 28 53
- 0.468773 0 3 tcp 1000 ------- 0 0.0 3.0 28 53
r 0.47144 3 0 ack 40 ------- 0 3.0 0.0 19 43
+ 0.47144 0 3 tcp 1000 ------- 0 0.0 3.0 29 54
- 0.47144 0 3 tcp 1000 ------- 0 0.0 3.0 29 54
r 0.498107 0 3 tcp 1000 ------- 0 0.0 3.0 20 44
+ 0.498107 3 0 ack 40 ------- 0 3.0 0.0 20 55
- 0.498107 3 0 ack 40 ------- 0 3.0 0.0 20 55
r 0.498107 1 2 tcp 1000 ------- 1 1.0 2.0 2 45
+ 0.498107 2 1 ack 40 ------- 1 2.0 1.0 2 56
- 0.498107 2 1 ack 40 ------- 1 2.0 1.0 2 56
r 0.500773 0 3 tcp 1000 ------- 0 0.0 3.0 21 46
+ 0.500773 3 0 ack 40 ------- 0 3.0 0.0 21 57
- 0.500773 3 0 ack 40 ------- 0 3.0 0.0 21 57
r 0.50344 0 3 tcp 1000 ------- 0 0.0 3.0 22 47
+ 0.50344 3 0 ack 40 ------- 0 3.0 0.0 22 58
- 0.50344 3 0 ack 40 ------- 0 3.0 0.0 22 58
r 0.506107 0 3 tcp 1000 ------- 0 0.0 3.0 23 48
+ 0.506107 3 0 ack 40 ------- 0 3.0 0.0 23 59
- 0.506107 3 0 ack 40 ------- 0 3.0 0.0 23 59
r 0.508773 0 3 tcp 1000 ------- 0 0.0 3.0 24 49
+ 0.508773 3 0 ack 40 ------- 0 3.0 0.0 24 60
- 0.508773 3 0 ack 40 ------- 0 3.0 0.0 24 60
r 0.51144 0 3 tcp 1000 ------- 0 0.0 3.0 25 50
+ 0.51144 3 0 ack 40 ------- 0 3.0 0.0 25 61
- 0.51144 3 0 ack 40 ------- 0 3.0 0.0 25 61
r 0.514107 0 3 tcp 1000 ------- 0 0.0 3.0 26 51
+ 0.514107 3 0 ack 40 ------- 0 3.0 0.0 26 62
- 0.514107 3 0 ack 40 ------- 0 3.0 0.0 26 62
r 0.516773 0 3 tcp 1000 ------- 0 0.0 3.0 27 52
+ 0.516773 3 0 ack 40 ------- 0 3.0 0.0 27 63
- 0.516773 3 0 ack 40 ------- 0 3.0 0.0 27 63
r 0.51944 0 3 tcp 1000 ------- 0 0.0 3.0 28 53
+ 0.51944 3 0 ack 40 ------- 0 3.0 0.0 28 64
- 0.51944 3 0 ack 40 ------- 0 3.0 0.0 28 64
r 0.522107 0 3 tcp 1000 ------- 0 0.0 3.0 29 54
+ 0.522107 3 0 ack 40 ------- 0 3.0 0.0 29 65
- 0.522107 3 0 ack 40 ------- 0 3.0 0.0 29 65
r 0.546213 3 0 ack 40 ------- 0 3.0 0.0 20 55
+ 0.546213 0 3 tcp 1000 ------- 0 0.0 3.0 30 66
- 0.546213 0 3 tcp 1000 ------- 0 0.0 3.0 30 66
r 0.546213 2 1 ack 40 ------- 1 2.0 1.0 2 56
+ 0.546213 1 2 tcp 1000 ------- 1 1.0 2.0 3 67
- 0.546213 1 2 tcp 1000 ------- 1 1.0 2.0 3 67
r 0.54888 3 0 ack 40 ------- 0 3.0 0.0 21 57
+ 0.54888 0 3 tcp 1000 ------- 0 0.0 3.0 31 68
- 0.54888 0 3 tcp 1000 ------- 0 0.0 3.0 31 68
r 0.551547 3 0 ack 40 ------- 0 3.0 0.0 22 58
+ 0.551547 0 3 tcp 1000 ------- 0 0.0 3.0 32 69
- 0.551547 0 3 tcp 1000 ------- 0 0.0 3.0 32 69
r 0.554213 3 0 ack 40 ------- 0 3.0 0.0 23 59
+ 0.554213 0 3 tcp 1000 ------- 0 0.0 3.0 33 70
- 0.554213 0 3 tcp 1000 ------- 0 0.0 3.0 33 70
r 0.55688 3 0 ack 40 ------- 0 3.0 0.0 24 60
+ 0.55688 0 3 tcp 1000 ------- 0 0.0 3.0 34 71
- 0.55688 0 3 tcp 1000 ------- 0 0.0 3.0 34 71
r 0.559547 3 0 ack 40 ------- 0 3.0 0.0 25 61
+ 0.559547 0 3 tcp 1000 ------- 0 0.0 3.0 35 72
- 0.559547 0 3 tcp 1000 ------- 0 0.0 3.0 35 72
r 0.562213 3 0 ack 40 ------- 0 3.0 0.0 26 62
+ 0.562213 0 3 tcp 1000 ------- 0 0.0 3.0 36 73
- 0.562213 0 3 tcp 1000 ------- 0 0.0 3.0 36 73
r 0.56488 3 0 ack 40 ------- 0 3.0 0.0 27 63
+ 0.56488 0 3 tcp 1000 ------- 0 0.0 3.0 37 74
- 0.56488 0 3 tcp 1000 ------- 0 0.0 3.0 37 74
r 0.567547 3 0 ack 40 ------- 0 3.0 0.0 28 64
+ 0.567547 0 3 tcp 1000 ------- 0 0.0 3.0 38 75
- 0.567547 0 3 tcp 1000 ------- 0 0.0 3.0 38 75
r 0.570213 3 0 ack 40 ------- 0 3.0 0.0 29 65
+ 0.570213 0 3 tcp 1000 ------- 0 0.0 3.0 39 76
- 0.570213 0 3 tcp 1000 ------- 0 0.0 3.0 39 76
r 0.59688 0 3 tcp 1000 ------- 0 0.0 3.0 30 66
+ 0.59688 3 0 ack 40 ------- 0 3.0 0.0 30 77
- 0.59688 3 0 ack 40 ------- 0 3.0 0.0 30 77
r 0.59688 1 2 tcp 1000 ------- 1 1.0 2.0 3 67
+ 0.59688 2 1 ack 40 ------- 1 2.0 1.0 3 78
- 0.59688 2 1 ack 40 ------- 1 2.0 1.0 3 78
r 0.599547 0 3 tcp 1000 ------- 0 0.0 3.0 31 68
+ 0.599547 3 0 ack 40 ------- 0 3.0 0.0 31 79
- 0.599547 3 0 ack 40 ------- 0 3.0 0.0 31 79
r 0.602213 0 3 tcp 1000 ------- 0 0.0 3.0 32 69
+ 0.602213 3 0 ack 40 ------- 0 3.0 0.0 32 80
- 0.602213 3 0 ack 40 ------- 0 3.0 0.0 32 80
r 0.60488 0 3 tcp 1000 ------- 0 0.0 3.0 33 70
+ 0.60488 3 0 ack 40 ------- 0 3.0 0.0 33 81
- 0.60488 3 0 ack 40 ------- 0 3.0 0.0 33 81
r 0.607547 0 3 tcp 1000 ------- 0 0.0 3.0 34 71
+ 0.607547 3 0 ack 40 ------- 0 3.0 0.0 34 82
- 0.607547 3 0 ack 40 ------- 0 3.0 0.0 34 82
r 0.610213 0 3 tcp 1000 ------- 0 0.0 3.0 35 72
+ 0.610213 3 0 ack 40 ------- 0 3.0 0.0 35 83
- 0.610213 3 0 ack 40 ------- 0 3.0 0.0 35 83
r 0.61288 0 3 tcp 1000 ------- 0 0.0 3.0 36 73
+ 0.61288 3 0 ack 40 ------- 0 3.0 0.0 36 84
- 0.61288 3 0 ack 40 ------- 0 3.0 0.0 36 84
r 0.615547 0 3 tcp 1000 ------- 0 0.0 3.0 37 74
+ 0.615547 3 0 ack 40 ------- 0 3.0 0.0 37 85
- 0.615547 3 0 ack 40 ------- 0 3.0 0.0 37 85
r 0.618213 0 3 tcp 1000 ------- 0 0.0 3.0 38 75
+ 0.618213 3 0 ack 40 ------- 0 3.0 0.0 38 86
- 0.618213 3 0 ack 40 ------- 0 3.0 0.0 38 86
r 0.62088 0 3 tcp 1000 ------- 0 0.0 3.0 39 76
+ 0.62088 3 0 ack 40 ------- 0 3.0 0.0 39 87
- 0.62088 3 0 ack 40 ------- 0 3.0 0.0 39 87
r 0.644987 3 0 ack 40 ------- 0 3.0 0.0 30 77
+ 0.644987 0 3 tcp 1000 ------- 0 0.0 3.0 40 88
- 0.644987 0 3 tcp 1000 ------- 0 0.0 3.0 40 88
r 0.644987 2 1 ack 40 ------- 1 2.0 1.0 3 78
+ 0.644987 1 2 tcp 1000 ------- 1 1.0 2.0 4 89
- 0.644987 1 2 tcp 1000 ------- 1 1.0 2.0 4 89
r 0.647653 3 0 ack 40 ------- 0 3.0 0.0 31 79
+ 0.647653 0 3 tcp 1000 ------- 0 0.0 3.0 41 90
- 0.647653 0 3 tcp 1000 ------- 0 0.0 3.0 41 90
r 0.65032 3 0 ack 40 ------- 0 3.0 0.0 32 80
+ 0.65032 0 3 tcp 1000 ------- 0 0.0 3.0 42 91
- 0.65032 0 3 tcp 1000 ------- 0 0.0 3.0 42 91
r 0.652987 3 0 ack 40 ------- 0 3.0 0.0 33 81
+ 0.652987 0 3 tcp 1000 ------- 0 0.0 3.0 43 92
- 0.652987 0 3 tcp 1000 ------- 0 0.0 3.0 43 92
r 0.655653 3 0 ack 40 ------- 0 3.0 0.0 34 82
+ 0.655653 0 3 tcp 1000 ------- 0 0.0 3.0 44 93
- 0.655653 0 3 tcp 1000 ------- 0 0.0 3.0 44 93
r 0.65832 3 0 ack 40 ------- 0 3.0 0.0 35 83
+ 0.65832 0 3 tcp 1000 ------- 0 0.0 3.0 45 94
- 0.65832 0 3 tcp 1000 ------- 0 0.0 3.0 45 94
r 0.660987 3 0 ack 40 ------- 0 3.0 0.0 36 84
+ 0.660987 0 3 tcp 1000 ------- 0 0.0 3.0 46 95
- 0.660987 0 3 tcp 1000 ------- 0 0.0 3.0 46 95
r 0.663653 3 0 ack 40 ------- 0 3.0 0.0 37 85
+ 0.663653 0 3 tcp 1000 ------- 0 0.0 3.0 47 96
- 0.663653 0 3 tcp 1000 ------- 0 0.0 3.0 47 96
r 0.66632 3 0 ack 40 ------- 0 3.0 0.0 38 86
+ 0.66632 0 3 tcp 1000 ------- 0 0.0 3.0 48 97
- 0.66632 0 3 tcp 1000 ------- 0 0.0 3.0 48 97
r 0.668987 3 0 ack 40 ------- 0 3.0 0.0 39 87
+ 0.668987 0 3 tcp 1000 ------- 0 0.0 3.0 49 98
- 0.668987 0 3 tcp 1000 ------- 0 0.0 3.0 49 98
r 0.695653 0 3 tcp 1000 ------- 0 0.0 3.0 40 88
+ 0.695653 3 0 ack 40 ------- 0 3.0 0.0 40 99
- 0.695653 3 0 ack 40 ------- 0 3.0 0.0 40 99
r 0.695653 1 2 tcp 1000 ------- 1 1.0 2.0 4 89
+ 0.695653 2 1 ack 40 ------- 1 2.0 1.0 4 100
- 0.695653 2 1 ack 40 ------- 1 2.0 1.0 4 100
r 0.69832 0 3 tcp 1000 ------- 0 0.0 3.0 41 90
+ 0.69832 3 0 ack 40 ------- 0 3.0 0.0 41 101
- 0.69832 3 0 ack 40 ------- 0 3.0 0.0 41 101
r 0.700987 0 3 tcp 1000 ------- 0 0.0 3.0 42 91
+ 0.700987 3 0 ack 40 ------- 0 3.0 0.0 42 102
- 0.700987 3 0 ack 40 ------- 0 3.0 0.0 42 102
r 0.703653 0 3 tcp 1000 ------- 0 0.0 3.0 43 92
+ 0.703653 3 0 ack 40 ------- 0 3.0 0.0 43 103
- 0.703653 3 0 ack 40 ------- 0 3.0 0.0 43 103
r 0.70632 0 3 tcp 1000 ------- 0 0.0 3.0 44 93
+ 0.70632 3 0 ack 40 ------- 0 3.0 0.0 44 104
- 0.70632 3 0 ack 40 ------- 0 3.0 0.0 44 104
r 0.708987 0 3 tcp 1000 ------- 0 0.0 3.0 45 94
+ 0.708987 3 0 ack 40 ------- 0 3.0 0.0 45 105
- 0.708987 3 0 ack 40 ------- 0 3.0 0.0 45 105
r 0.711653 0 3 tcp 1000 ------- 0 0.0 3.0 46 95
+ 0.711653 3 0 ack 40 ------- 0 3.0 0.0 46 106
- 0.711653 3 0 ack 40 ------- 0 3.0 0.0 46 106
r 0.71432 0 3 tcp 1000 ------- 0 0.0 3.0 47 96
+ 0.71432 3 0 ack 40 ------- 0 3.0 0.0 47 107
- 0.71432 3 0 ack 40 ------- 0 3.0 0.0 47 107
r 0.716987 0 3 tcp 1000 ------- 0 0.0 3.0 48 97
+ 0.716987 3 0 ack 40 ------- 0 3.0 0.0 48 108
- 0.716987 3 0 ack 40 ------- 0 3.0 0.0 48 108
r 0.719653 0 3 tcp 1000 ------- 0 0.0 3.0 49 98
+ 0.719653 3 0 ack 40 ------- 0 3.0 0.0 49 109
- 0.719653 3 0 ack 40 ------- 0 3.0 0.0 49 109
r 0.74376 3 0 ack 40 ------- 0 3.0 0.0 40 99
+ 0.74376 0 3 tcp 1000 ------- 0 0.0 3.0 50 110
- 0.74376 0 3 tcp 1000 ------- 0 0.0 3.0 50 110
r 0.74376 2 1 ack 40 ------- 1 2.0 1.0 4 100
+ 0.74376 1 2 tcp 1000 ------- 1 1.0 2.0 5 111
- 0.74376 1 2 tcp 1000 ------- 1 1.0 2.0 5 111
r 0.746427 3 0 ack 40 ------- 0 3.0 0.0 41 101
+ 0.746427 0 3 tcp 1000 ------- 0 0.0 3.0 51 112
- 0.746427 0 3 tcp 1000 ------- 0 0.0 3.0 51 112
r 0.749093 3 0 ack 40 ------- 0 3.0 0.0 42 102
+ 0.749093 0 3 tcp 1000 ------- 0 0.0 3.0 52 113
- 0.749093 0 3 tcp 1000 ------- 0 0.0 3.0 52 113
r 0.75176 3 0 ack 40 ------- 0 3.0 0.0 43 103
+ 0.75176 0 3 tcp 1000 ------- 0 0.0 3.0 53 114
- 0.75176 0 3 tcp 1000 ------- 0 0.0 3.0 53 114
r 0.754427 3 0 ack 40 ------- 0 3.0 0.0 44 104
+ 0.754427 0 3 tcp 1000 ------- 0 0.0 3.0 54 115
- 0.754427 0 3 tcp 1000 ------- 0 0.0 3.0 54 115
r 0.757093 3 0 ack 40 ------- 0 3.0 0.0 45 105
+ 0.757093 0 3 tcp 1000 ------- 0 0.0 3.0 55 116
- 0.757093 0 3 tcp 1000 ------- 0 0.0 3.0 55 116
r 0.75976 3 0 ack 40 ------- 0 3.0 0.0 46 106
+ 0.75976 0 3 tcp 1000 ------- 0 0.0 3.0 56 117
- 0.75976 0 3 tcp 1000 ------- 0 0.0 3.0 56 117
r 0.762427 3 0 ack 40 ------- 0 3.0 0.0 47 107
+ 0.762427 0 3 tcp 1000 ------- 0 0.0 3.0 57 118
- 0.762427 0 3 tcp 1000 ------- 0 0.0 3.0 57 118
r 0.765093 3 0 ack 40 ------- 0 3.0 0.0 48 108
+ 0.765093 0 3 tcp 1000 ------- 0 0.0 3.0 58 119
- 0.765093 0 3 tcp 1000 ------- 0 0.0 3.0 58 119
r 0.76776 3 0 ack 40 ------- 0 3.0 0.0 49 109
+ 0.76776 0 3 tcp 1000 ------- 0 0.0 3.0 59 120
- 0.76776 0 3 tcp 1000 ------- 0 0.0 3.0 59 120
r 0.794427 0 3 tcp 1000 ------- 0 0.0 3.0 50 110
+ 0.794427 3 0 ack 40 ------- 0 3.0 0.0 50 121
- 0.794427 3 0 ack 40 ------- 0 3.0 0.0 50 121
r 0.794427 1 2 tcp 1000 ------- 1 1.0 2.0 5 111
+ 0.794427 2 1 ack 40 ------- 1 2.0 1.0 5 122
- 0.794427 2 1 ack 40 ------- 1 2.0 1.0 5 122
r 0.797093 0 3 tcp 1000 ------- 0 0.0 3.0 51 112
+ 0.797093 3 0 ack 40 ------- 0 3.0 0.0 51 123
- 0.797093 3 0 ack 40 ------- 0 3.0 0.0 51 123
r 0.79976 0 3 tcp 1000 ------- 0 0.0 3.0 52 113
+ 0.79976 3 0 ack 40 ------- 0 3.0 0.0 52 124
- 0.79976 3 0 ack 40 ------- 0 3.0 0.0 52 124
r 0.802427 0 3 tcp 1000 ------- 0 0.0 3.0 53 114
+ 0.802427 3 0 ack 40 ------- 0 3.0 0.0 53 125
- 0.802427 3 0 ack 40 ------- 0 3.0 0.0 53 125
r 0.805093 0 3 tcp 1000 ------- 0 0.0 3.0 54 115
+ 0.805093 3 0 ack 40 ------- 0 3.0 0.0 54 126
- 0.805093 3 0 ack 40 ------- 0 3.0 0.0 54 126
r 0.80776 0 3 tcp 1000 ------- 0 0.0 3.0 55 116
+ 0.80776 3 0 ack 40 ------- 0 3.0 0.0 55 127
- 0.80776 3 0 ack 40 ------- 0 3.0 0.0 55 127
r 0.810427 0 3 tcp 1000 ------- 0 0.0 3.0 56 117
+ 0.810427 3 0 ack 40 ------- 0 3.0 0.0 56 128
- 0.810427 3 0 ack 40 ------- 0 3.0 0.0 56 128
r 0.813093 0 3 tcp 1000 ------- 0 0.0 3.0 57 118
+ 0.813093 3 0 ack 40 ------- 0 3.0 0.0 57 129
- 0.813093 3 0 ack 40 ------- 0 3.0 0.0 57 129
r 0.81576 0 3 tcp 1000 ------- 0 0.0 3.0 58 119
+ 0.81576 3 0 ack 40 ------- 0 3.0 0.0 58 130
- 0.81576 3 0 ack 40 ------- 0 3.0 0.0 58 130
r 0.818427 0 3 tcp 1000 ------- 0 0.0 3.0 59 120
+ 0.818427 3 0 ack 40 ------- 0 3.0 0.0 59 131
- 0.818427 3 0 ack 40 ------- 0 3.0 0.0 59 131
r 0.842533 3 0 ack 40 ------- 0 3.0 0.0 50 121
+ 0.842533 0 3 tcp 1000 ------- 0 0.0 3.0 60 132
- 0.842533 0 3 tcp 1000 ------- 0 0.0 3.0 60 132
r 0.842533 2 1 ack 40 ------- 1 2.0 1.0 5 122
+ 0.842533 1 2 tcp 1000 ------- 1 1.0 2.0 6 133
- 0.842533 1 2 tcp 1000 ------- 1 1.0 2.0 6 133
r 0.8452 3 0 ack 40 ------- 0 3.0 0.0 51 123
+ 0.8452 0 3 tcp 1000 ------- 0 0.0 3.0 61 134
- 0.8452 0 3 tcp 1000 ------- 0 0.0 3.0 61 134
r 0.847867 3 0 ack 40 ------- 0 3.0 0.0 52 124
+ 0.847867 0 3 tcp 1000 ------- 0 0.0 3.0 62 135
- 0.847867 0 3 tcp 1000 ------- 0 0.0 3.0 62 135
r 0.850533 3 0 ack 40 ------- 0 3.0 0.0 53 125
+ 0.850533 0 3 tcp 1000 ------- 0 0.0 3.0 63 136
- 0.850533 0 3 tcp 1000 ------- 0 0.0 3.0 63 136
r 0.8532 3 0 ack 40 ------- 0 3.0 0.0 54 126
+ 0.8532 0 3 tcp 1000 ------- 0 0.0 3.0 64 137
- 0.8532 0 3 tcp 1000 ------- 0 0.0 3.0 64 137
r 0.855867 3 0 ack 40 ------- 0 3.0 0.0 55 127
+ 0.855867 0 3 tcp 1000 ------- 0 0.0 3.0 65 138
- 0.855867 0 3 tcp 1000 ------- 0 0.0 3.0 65 138
r 0.858533 3 0 ack 40 ------- 0 3.0 0.0 56 128
+ 0.858533 0 3 tcp 1000 ------- 0 0.0 3.0 66 139
- 0.858533 0 3 tcp 1000 ------- 0 0.0 3.0 66 139
r 0.8612 3 0 ack 40 ------- 0 3.0 0.0 57 129
+ 0.8612 0 3 tcp 1000 ------- 0 0.0 3.0 67 140
- 0.8612 0 3 tcp 1000 ------- 0 0.0 3.0 67 140
r 0.863867 3 0 ack 40 ------- 0 3.0 0.0 58 130
+ 0.863867 0 3 tcp 1000 ------- 0 0.0 3.0 68 141
- 0.863867 0 3 tcp 1000 ------- 0 0.0 3.0 68 141
r 0.866533 3 0 ack 40 ------- 0 3.0 0.0 59 131
+ 0.866533 0 3 tcp 1000 ------- 0 0.0 3.0 69 142
- 0.866533 0 3 tcp 1000 ------- 0 0.0 3.0 69 142
r 0.8932 0 3 tcp 1000 ------- 0 0.0 3.0 60 132
+ 0.8932 3 0 ack 40 ------- 0 3.0 0.0 60 143
- 0.8932 3 0 ack 40 ------- 0 3.0 0.0 60 143
r 0.8932 1 2 tcp 1000 ------- 1 1.0 2.0 6 133
+ 0.8932 2 1 ack 40 ------- 1 2.0 1.0 6 144
- 0.8932 2 1 ack 40 ------- 1 2.0 1.0 6 144
r 0.895867 0 3 tcp 1000 ------- 0 0.0 3.0 61 134
+ 0.895867 3 0 ack 40 ------- 0 3.0 0.0 61 145
- 0.895867 3 0 ack 40 ------- 0 3.0 0.0 61 145
r 0.898533 0 3 tcp 1000 ------- 0 0.0 3.0 62 135
+ 0.898533 3 0 ack 40 ------- 0 3.0 0.0 62 146
- 0.898533 3 0 ack 40 ------- 0 3.0 0.0 62 146
r 0.9012 0 3 tcp 1000 ------- 0 0.0 3.0 63 136
+ 0.9012 3 0 ack 40 ------- 0 3.0 0.0 63 147
- 0.9012 3 0 ack 40 ------- 0 3.0 0.0 63 147
r 0.903867 0 3 tcp 1000 ------- 0 0.0 3.0 64 137
+ 0.903867 3 0 ack 40 ------- 0 3.0 0.0 64 148
- 0.903867 3 0 ack 40 ------- 0 3.0 0.0 64 148
r 0.906533 0 3 tcp 1000 ------- 0 0.0 3.0 65 138
+ 0.906533 3 0 ack 40 ------- 0 3.0 0.0 65 149
- 0.906533 3 0 ack 40 ------- 0 3.0 0.0 65 149
r 0.9092 0 3 tcp 1000 ------- 0 0.0 3.0 66 139
+ 0.9092 3 0 ack 40 ------- 0 3.0 0.0 66 150
- 0.9092 3 0 ack 40 ------- 0 3.0 0.0 66 150
r 0.911867 0 3 tcp 1000 ------- 0 0.0 3.0 67 140
+ 0.911867 3 0 ack 40 ------- 0 3.0 0.0 67 151
- 0.911867 3 0 ack 40 ------- 0 3.0 0.0 67 151
r 0.914533 0 3 tcp 1000 ------- 0 0.0 3.0 68 141
+ 0.914533 3 0 ack 40 ------- 0 3.0 0.0 68 152
- 0.914533 3 0 ack 40 ------- 0 3.0 0.0 68 152
r 0.9172 0 3 tcp 1000 ------- 0 0.0 3.0 69 142
+ 0.9172 3 0 ack 40 ------- 0 3.0 0.0 69 153
- 0.9172 3 0 ack 40 ------- 0 3.0 0.0 69 153
r 0.941307 3 0 ack 40 ------- 0 3.0 0.0 60 143
+ 0.941307 0 3 tcp 1000 ------- 0 0.0 3.0 70 154
- 0.941307 0 3 tcp 1000 ------- 0 0.0 3.0 70 154
r 0.941307 2 1 ack 40 ------- 1 2.0 1.0 6 144
+ 0.941307 1 2 tcp 1000 ------- 1 1.0 2.0 7 155
- 0.941307 1 2 tcp 1000 ------- 1 1.0 2.0 7 155
r 0.943973 3 0 ack 40 ------- 0 3.0 0.0 61 145
+ 0.943973 0 3 tcp 1000 ------- 0 0.0 3.0 71 156
- 0.943973 0 3 tcp 1000 ------- 0 0.0 3.0 71 156
r 0.94664 3 0 ack 40 ------- 0 3.0 0.0 62 146
+ 0.94664 0 3 tcp 1000 ------- 0 0.0 3.0 72 157
- 0.94664 0 3 tcp 1000 ------- 0 0.0 3.0 72 157
r 0.949307 3 0 ack 40 ------- 0 3.0 0.0 63 147
+ 0.949307 0 3 tcp 1000 ------- 0 0.0 3.0 73 158
- 0.949307 0 3 tcp 1000 ------- 0 0.0 3.0 73 158
r 0.951973 3 0 ack 40 ------- 0 3.0 0.0 64 148
+ 0.951973 0 3 tcp 1000 ------- 0 0.0 3.0 74 159
- 0.951973 0 3 tcp 1000 ------- 0 0.0 3.0 74 159
r 0.95464 3 0 ack 40 ------- 0 3.0 0.0 65 149
+ 0.95464 0 3 tcp 1000 ------- 0 0.0 3.0 75 160
- 0.95464 0 3 tcp 1000 ------- 0 0.0 3.0 75 160
r 0.957307 3 0 ack 40 ------- 0 3.0 0.0 66 150
+ 0.957307 0 3 tcp 1000 ------- 0 0.0 3.0 76 161
- 0.957307 0 3 tcp 1000 ------- 0 0.0 3.0 76 161
r 0.959973 3 0 ack 40 ------- 0 3.0 0.0 67 151
+ 0.959973 0 3 tcp 1000 ------- 0 0.0 3.0 77 162
- 0.959973 0 3 tcp 1000 ------- 0 0.0 3.0 77 162
r 0.96264 3 0 ack 40 ------- 0 3.0 0.0 68 152
+ 0.96264 0 3 tcp 1000 ------- 0 0.0 3.0 78 163
- 0.96264 0 3 tcp 1000 ------- 0 0.0 3.0 78 163
r 0.965307 3 0 ack 40 ------- 0 3.0 0.0 69 153
+ 0.965307 0 3 tcp 1000 ------- 0 0.0 3.0 79 164
- 0.965307 0 3 tcp 1000 ------- 0 0.0 3.0 79 164
r 0.991973 0 3 tcp 1000 ------- 0 0.0 3.0 70 154
+ 0.991973 3 0 ack 40 ------- 0 3.0 0.0 70 165
- 0.991973 3 0 ack 40 ------- 0 3.0 0.0 70 165
r 0.991973 1 2 tcp 1000 ------- 1 1.0 2.0 7 155
+ 0.991973 2 1 ack 40 ------- 1 2.0 1.0 7 166
- 0.991973 2 1 ack 40 ------- 1 2.0 1.0 7 166
r 0.99464 0 3 tcp 1000 ------- 0 0.0 3.0 71 156
+ 0.99464 3 0 ack 40 ------- 0 3.0 0.0 71 167
- 0.99464 3 0 ack 40 ------- 0 3.0 0.0 71 167
r 0.997307 0 3 tcp 1000 ------- 0 0.0 3.0 72 157
+ 0.997307 3 0 ack 40 ------- 0 3.0 0.0 72 168
- 0.997307 3 0 ack 40 ------- 0 3.0 0.0 72 168
r 0.999973 0 3 tcp 1000 ------- 0 0.0 3.0 73 158
+ 0.999973 3 0 ack 40 ------- 0 3.0 0.0 73 169
- 0.999973 3 0 ack 40 ------- 0 3.0 0.0 73 169
r 1.00264 0 3 tcp 1000 ------- 0 0.0 3.0 74 159
+ 1.00264 3 0 ack 40 ------- 0 3.0 0.0 74 170
- 1.00264 3 0 ack 40 ------- 0 3.0 0.0 74 170
r 1.005307 0 3 tcp 1000 ------- 0 0.0 3.0 75 160
+ 1.005307 3 0 ack 40 ------- 0 3.0 0.0 75 171
- 1.005307 3 0 ack 40 ------- 0 3.0 0.0 75 171
r 1.007973 0 3 tcp 1000 ------- 0 0.0 3.0 76 161
+ 1.007973 3 0 ack 40 ------- 0 3.0 0.0 76 172
- 1.007973 3 0 ack 40 ------- 0 3.0 0.0 76 172
r 1.01064 0 3 tcp 1000 ------- 0 0.0 3.0 77 162
+ 1.01064 3 0 ack 40 ------- 0 3.0 0.0 77 173
- 1.01064 3 0 ack 40 ------- 0 3.0 0.0 77 173
r 1.013307 0 3 tcp 1000 ------- 0 0.0 3.0 78 163
+ 1.013307 3 0 ack 40 ------- 0 3.0 0.0 78 174
- 1.013307 3 0 ack 40 ------- 0 3.0 0.0 78 174
r 1.015973 0 3 tcp 1000 ------- 0 0.0 3.0 79 164
+ 1.015973 3 0 ack 40 ------- 0 3.0 0.0 79 175
- 1.015973 3 0 ack 40 ------- 0 3.0 0.0 79 175
r 1.04008 3 0 ack 40 ------- 0 3.0 0.0 70 165
+ 1.04008 0 3 tcp 1000 ------- 0 0.0 3.0 80 176
- 1.04008 0 3 tcp 1000 ------- 0 0.0 3.0 80 176
r 1.04008 2 1 ack 40 ------- 1 2.0 1.0 7 166
+ 1.04008 1 2 tcp 1000 ------- 1 1.0 2.0 8 177
- 1.04008 1 2 tcp 1000 ------- 1 1.0 2.0 8 177
r 1.042747 3 0 ack 40 ------- 0 3.0 0.0 71 167
+ 1.042747 0 3 tcp 1000 ------- 0 0.0 3.0 81 178
- 1.042747 0 3 tcp 1000 ------- 0 0.0 3.0 81 178
r 1.045413 3 0 ack 40 ------- 0 3.0 0.0 72 168
+ 1.045413 0 3 tcp 1000 ------- 0 0.0 3.0 82 179
- 1.045413 0 3 tcp 1000 ------- 0 0.0 3.0 82 179
r 1.04808 3 0 ack 40 ------- 0 3.0 0.0 73 169
+ 1.04808 0 3 tcp 1000 ------- 0 0.0 3.0 83 180
- 1.04808 0 3 tcp 1000 ------- 0 0.0 3.0 83 180
r 1.050747 3 0 ack 40 ------- 0 3.0 0.0 74 170
+ 1.050747 0 3 tcp 1000 ------- 0 0.0 3.0 84 181
- 1.050747 0 3 tcp 1000 ------- 0 0.0 3.0 84 181
r 1.053413 3 0 ack 40 ------- 0 3.0 0.0 75 171
+ 1.053413 0 3 tcp 1000 ------- 0 0.0 3.0 85 182
- 1.053413 0 3 tcp 1000 ------- 0 0.0 3.0 85 182
r 1.05608 3 0 ack 40 ------- 0 3.0 0.0 76 172
+ 1.05608 0 3 tcp 1000 ------- 0 0.0 3.0 86 183
- 1.05608 0 3 tcp 1000 ------- 0 0.0 3.0 86 183
r 1.058747 3 0 ack 40 ------- 0 3.0 0.0 77 173
+ 1.058747 0 3 tcp 1000 ------- 0 0.0 3.0 87 184
- 1.058747 0 3 tcp 1000 ------- 0 0.0 3.0 87 184
r 1.061413 3 0 ack 40 ------- 0 3.0 0.0 78 174
+ 1.061413 0 3 tcp 1000 ------- 0 0.0 3.0 88 185
- 1.061413 0 3 tcp 1000 ------- 0 0.0 3.0 88 185
r 1.06408 3 0 ack 40 ------- 0 3.0 0.0 79 175
+ 1.06408 0 3 tcp 1000 ------- 0 0.0 3.0 89 186
- 1.06408 0 3 tcp 1000 ------- 0 0.0 3.0 89 186
r 1.090747 0 3 tcp 1000 ------- 0 0.0 3.0 80 176
+ 1.090747 3 0 ack 40 ------- 0 3.0 0.0 80 187
- 1.090747 3 0 ack 40 ------- 0 3.0 0.0 80 187
r 1.090747 1 2 tcp 1000 ------- 1 1.0 2.0 8 177
+ 1.090747 2 1 ack 40 ------- 1 2.0 1.0 8 188
- 1.090747 2 1 ack 40 ------- 1 2.0 1.0 8 188
r 1.093413 0 3 tcp 1000 ------- 0 0.0 3.0 81 178
+ 1.093413 3 0 ack 40 ------- 0 3.0 0.0 81 189
- 1.093413 3 0 ack 40 ------- 0 3.0 0.0 81 189
r 1.09608 0 3 tcp 1000 ------- 0 0.0 3.0 82 179
+ 1.09608 3 0 ack 40 ------- 0 3.0 0.0 82 190
- 1.09608 3 0 ack 40 ------- 0 3.0 0.0 82 190
r 1.098747 0 3 tcp 1000 ------- 0 0.0 3.0 83 180
+ 1.098747 3 0 ack 40 ------- 0 3.0 0.0 83 191
- 1.098747 3 0 ack 40 ------- 0 3.0 0.0 83 191
r 1.101413 0 3 tcp 1000 ------- 0 0.0 3.0 84 181
+ 1.101413 3 0 ack 40 ------- 0 3.0 0.0 84 192
- 1.101413 3 0 ack 40 ------- 0 3.0 0.0 84 192
r 1.10408 0 3 tcp 1000 ------- 0 0.0 3.0 85 182
+ 1.10408 3 0 ack 40 ------- 0 3.0 0.0 85 193
- 1.10408 3 0 ack 40 ------- 0 3.0 0.0 85 193
r 1.106747 0 3 tcp 1000 ------- 0 0.0 3.0 86 183
+ 1.106747 3 0 ack 40 ------- 0 3.0 0.0 86 194
- 1.106747 3 0 ack 40 ------- 0 3.0 0.0 86 194
r 1.109413 0 3 tcp 1000 ------- 0 0.0 3.0 87 184
+ 1.109413 3 0 ack 40 ------- 0 3.0 0.0 87 195
- 1.109413 3 0 ack 40 ------- 0 3.0 0.0 87 195
r 1.11208 0 3 tcp 1000 ------- 0 0.0 3.0 88 185
+ 1.11208 3 0 ack 40 ------- 0 3.0 0.0 88 196
- 1.11208 3 0 ack 40 ------- 0 3.0 0.0 88 196
r 1.114747 0 3 tcp 1000 ------- 0 0.0 3.0 89 186
+ 1.114747 3 0 ack 40 ------- 0 3.0 0.0 89 197
- 1.114747 3 0 ack 40 ------- 0 3.0 0.0 89 197
r 1.138853 3 0 ack 40 ------- 0 3.0 0.0 80 187
+ 1.138853 0 3 tcp 1000 ------- 0 0.0 3.0 90 198
- 1.138853 0 3 tcp 1000 ------- 0 0.0 3.0 90 198
r 1.138853 2 1 ack 40 ------- 1 2.0 1.0 8 188
+ 1.138853 1 2 tcp 1000 ------- 1 1.0 2.0 9 199
- 1.138853 1 2 tcp 1000 ------- 1 1.0 2.0 9 199
r 1.14152 3 0 ack 40 ------- 0 3.0 0.0 81 189
+ 1.14152 0 3 tcp 1000 ------- 0 0.0 3.0 91 200
- 1.14152 0 3 tcp 1000 ------- 0 0.0 3.0 91 200
r 1.144187 3 0 ack 40 ------- 0 3.0 0.0 82 190
+ 1.144187 0 3 tcp 1000 ------- 0 0.0 3.0 92 201
- 1.144187 0 3 tcp 1000 ------- 0 0.0 3.0 92 201
r 1.146853 3 0 ack 40 ------- 0 3.0 0.0 83 191
+ 1.146853 0 3 tcp 1000 ------- 0 0.0 3.0 93 202
- 1.146853 0 3 tcp 1000 ------- 0 0.0 3.0 93 202
r 1.14952 3 0 ack 40 ------- 0 3.0 0.0 84 192
+ 1.14952 0 3 tcp 1000 ------- 0 0.0 3.0 94 203
- 1.14952 0 3 tcp 1000 ------- 0 0.0 3.0 94 203
r 1.152187 3 0 ack 40 ------- 0 3.0 0.0 85 193
+ 1.152187 0 3 tcp 1000 ------- 0 0.0 3.0 95 204
- 1.152187 0 3 tcp 1000 ------- 0 0.0 3.0 95 204
r 1.154853 3 0 ack 40 ------- 0 3.0 0.0 86 194
+ 1.154853 0 3 tcp 1000 ------- 0 0.0 3.0 96 205
- 1.154853 0 3 tcp 1000 ------- 0 0.0 3.0 96 205
r 1.15752 3 0 ack 40 ------- 0 3.0 0.0 87 195
+ 1.15752 0 3 tcp 1000 ------- 0 0.0 3.0 97 206
- 1.15752 0 3 tcp 1000 ------- 0 0.0 3.0 97 206
r 1.160187 3 0 ack 40 ------- 0 3.0 0.0 88 196
+ 1.160187 0 3 tcp 1000 ------- 0 0.0 3.0 98 207
- 1.160187 0 3 tcp 1000 ------- 0 0.0 3.0 98 207
r 1.162853 3 0 ack 40 ------- 0 3.0 0.0 89 197
+ 1.162853 0 3 tcp 1000 ------- 0 0.0 3.0 99 208
- 1.162853 0 3 tcp 1000 ------- 0 0.0 3.0 99 208
r 1.18952 0 3 tcp 1000 ------- 0 0.0 3.0 90 198
+ 1.18952 3 0 ack 40 ------- 0 3.0 0.0 90 209
- 1.18952 3 0 ack 40 ------- 0 3.0 0.0 90 209
r 1.18952 1 2 tcp 1000 ------- 1 1.0 2.0 9 199
+ 1.18952 2 1 ack 40 ------- 1 2.0 1.0 9 210
- 1.18952 2 1 ack 40 ------- 1 2.0 1.0 9 210
r 1.192187 0 3 tcp 1000 ------- 0 0.0 3.0 91 200
+ 1.192187 3 0 ack 40 ------- 0 3.0 0.0 91 211
- 1.192187 3 0 ack 40 ------- 0 3.0 0.0 91 211
r 1.194853 0 3 tcp 1000 ------- 0 0.0 3.0 92 201
+ 1.194853 3 0 ack 40 ------- 0 3.0 0.0 92 212