V -t * -v 1.0a5 -a 0
A -t * -n 1 -p 0 -o 0xffffffff -c 31 -a 1
A -t * -h 1 -m 2147483647 -s 0
c -t * -i 0 -n blue
c -t * -i 1 -n orange
n -t * -a 0 -s 0 -S UP -v circle -c black -i black
n -t * -a 1 -s 1 -S UP -v circle -c black -i black
n -t * -a 2 -s 2 -S UP -v circle -c black -i black
n -t * -a 3 -s 3 -S UP -v circle -c black -i black
l -t * -s 0 -d 1 -S UP -r 3000000 -D 0.048000000000000001 -c black -o right
l -t * -s 1 -d 2 -S UP -r 3000000 -D 0.048000000000000001 -c black -o down
l -t * -s 2 -d 3 -S UP -r 3000000 -D 0.048000000000000001 -c black -o left
l -t * -s 3 -d 0 -S UP -r 3000000 -D 0.048000000000000001 -c black -o up
n -t 0 -s 0 -S DLABEL -l "GBN_sender" -L ""
n -t 0 -s 3 -S DLABEL -l "GBN_receiver" -L ""
n -t 0 -s 1 -S DLABEL -l "SW_sender" -L ""
n -t 0 -s 2 -S DLABEL -l "SW_receiver" -L ""
+ -t 0.25 -s 0 -d 3 -p tcp -e 960 -c 0 -i 0 -a 0 -x {0.0 3.0 0 ------- null}
- -t 0.25 -s 0 -d 3 -p tcp -e 960 -c 0 -i 0 -a 0 -x {0.0 3.0 0 ------- null}
h -t 0.25 -s 0 -d 3 -p tcp -e 960 -c 0 -i 0 -a 0 -x {0.0 3.0 -1 ------- null}
+ -t 0.25 -s 0 -d 3 -p tcp -e 1000 -c 0 -i 1 -a 0 -x {0.0 3.0 1 ------- null}
+ -t 0.25 -s 0 -d 3 -p tcp -e 1000 -c 0 -i 2 -a 0 -x {0.0 3.0 2 ------- null}
+ -t 0.25 -s 0 -d 3 -p tcp -e 1000 -c 0 -i 3 -a 0 -x {0.0 3.0 3 ------- null}
+ -t 0.25 -s 0 -d 3 -p tcp -e 1000 -c 0 -i 4 -a 0 -x {0.0 3.0 4 ------- null}
+ -t 0.25 -s 0 -d 3 -p tcp -e 1000 -c 0 -i 5 -a 0 -x {0.0 3.0 5 ------- null}
+ -t 0.25 -s 0 -d 3 -p tcp -e 1000 -c 0 -i 6 -a 0 -x {0.0 3.0 6 ------- null}
+ -t 0.25 -s 0 -d 3 -p tcp -e 1000 -c 0 -i 7 -a 0 -x {0.0 3.0 7 ------- null}
+ -t 0.25 -s 0 -d 3 -p tcp -e 1000 -c 0 -i 8 -a 0 -x {0.0 3.0 8 ------- null}
+ -t 0.25 -s 0 -d 3 -p tcp -e 1000 -c 0 -i 9 -a 0 -x {0.0 3.0 9 ------- null}
+ -t 0.25 -s 1 -d 2 -p tcp -e 960 -c 1 -i 10 -a 1 -x {1.0 2.0 0 ------- null}
- -t 0.25 -s 1 -d 2 -p tcp -e 960 -c 1 -i 10 -a 1 -x {1.0 2.0 0 ------- null}
h -t 0.25 -s 1 -d 2 -p tcp -e 960 -c 1 -i 10 -a 1 -x {1.0 2.0 -1 ------- null}
- -t 0.25256 -s 0 -d 3 -p tcp -e 1000 -c 0 -i 1 -a 0 -x {0.0 3.0 1 ------- null}
h -t 0.25256 -s 0 -d 3 -p tcp -e 1000 -c 0 -i 1 -a 0 -x {0.0 3.0 -1 ------- null}
- -t 0.255226666666667 -s 0 -d 3 -p tcp -e 1000 -c 0 -i 2 -a 0 -x {0.0 3.0 2 ------- null}
h -t 0.255226666666667 -s 0 -d 3 -p tcp -e 1000 -c 0 -i 2 -a 0 -x {0.0 3.0 -1 ------- null}
- -t 0.257893333333333 -s 0 -d 3 -p tcp -e 1000 -c 0 -i 3 -a 0 -x {0.0 3.0 3 ------- null}
h -t 0.257893333333333 -s 0 -d 3 -p tcp -e 1000 -c 0 -i 3 -a 0 -x {0.0 3.0 -1 ------- null}
- -t 0.26056 -s 0 -d 3 -p tcp -e 1000 -c 0 -i 4 -a 0 -x {0.0 3.0 4 ------- null}
h -t 0.26056 -s 0 -d 3 -p tcp -e 1000 -c 0 -i 4 -a 0 -x {0.0 3.0 -1 ------- null}
- -t 0.263226666666667 -s 0 -d 3 -p tcp -e 1000 -c 0 -i 5 -a 0 -x {0.0 3.0 5 ------- null}
h -t 0.263226666666667 -s 0 -d 3 -p tcp -e 1000 -c 0 -i 5 -a 0 -x {0.0 3.0 -1 ------- null}
- -t 0.265893333333333 -s 0 -d 3 -p tcp -e 1000 -c 0 -i 6 -a 0 -x {0.0 3.0 6 ------- null}
h -t 0.265893333333333 -s 0 -d 3 -p tcp -e 1000 -c 0 -i 6 -a 0 -x {0.0 3.0 -1 ------- null}
- -t 0.26856 -s 0 -d 3 -p tcp -e 1000 -c 0 -i 7 -a 0 -x {0.0 3.0 7 ------- null}
h -t 0.26856 -s 0 -d 3 -p tcp -e 1000 -c 0 -i 7 -a 0 -x {0.0 3.0 -1 ------- null}
- -t 0.271226666666667 -s 0 -d 3 -p tcp -e 1000 -c 0 -i 8 -a 0 -x {0.0 3.0 8 ------- null}
h -t 0.271226666666667 -s 0 -d 3 -p tcp -e 1000 -c 0 -i 8 -a 0 -x {0.0 3.0 -1 ------- null}
- -t 0.273893333333333 -s 0 -d 3 -p tcp -e 1000 -c 0 -i 9 -a 0 -x {0.0 3.0 9 ------- null}
h -t 0.273893333333333 -s 0 -d 3 -p tcp -e 1000 -c 0 -i 9 -a 0 -x {0.0 3.0 -1 ------- null}
r -t 0.30056 -s 0 -d 3 -p tcp -e 960 -c 0 -i 0 -a 0 -x {0.0 3.0 0 ------- null}
+ -t 0.30056 -s 3 -d 0 -p ack -e 40 -c 0 -i 11 -a 0 -x {3.0 0.0 0 ------- null}
- -t 0.30056 -s 3 -d 0 -p ack -e 40 -c 0 -i 11 -a 0 -x {3.0 0.0 0 ------- null}
h -t 0.30056 -s 3 -d 0 -p ack -e 40 -c 0 -i 11 -a 0 -x {3.0 0.0 -1 ------- null}
r -t 0.30056 -s 1 -d 2 -p tcp -e 960 -c 1 -i 10 -a 1 -x {1.0 2.0 0 ------- null}
+ -t 0.30056 -s 2 -d 1 -p ack -e 40 -c 1 -i 12 -a 1 -x {2.0 1.0 0 ------- null}
- -t 0.30056 -s 2 -d 1 -p ack -e 40 -c 1 -i 12 -a 1 -x {2.0 1.0 0 ------- null}
h -t 0.30056 -s 2 -d 1 -p ack -e 40 -c 1 -i 12 -a 1 -x {2.0 1.0 -1 ------- null}
r -t 0.303226666666667 -s 0 -d 3 -p tcp -e 1000 -c 0 -i 1 -a 0 -x {0.0 3.0 1 ------- null}
+ -t 0.303226666666667 -s 3 -d 0 -p ack -e 40 -c 0 -i 13 -a 0 -x {3.0 0.0 1 ------- null}
- -t 0.303226666666667 -s 3 -d 0 -p ack -e 40 -c 0 -i 13 -a 0 -x {3.0 0.0 1 ------- null}
h -t 0.303226666666667 -s 3 -d 0 -p ack -e 40 -c 0 -i 13 -a 0 -x {3.0 0.0 -1 ------- null}
r -t 0.305893333333333 -s 0 -d 3 -p tcp -e 1000 -c 0 -i 2 -a 0 -x {0.0 3.0 2 ------- null}
+ -t 0.305893333333333 -s 3 -d 0 -p ack -e 40 -c 0 -i 14 -a 0 -x {3.0 0.0 2 ------- null}
- -t 0.305893333333333 -s 3 -d 0 -p ack -e 40 -c 0 -i 14 -a 0 -x {3.0 0.0 2 ------- null}
h -t 0.305893333333333 -s 3 -d 0 -p ack -e 40 -c 0 -i 14 -a 0 -x {3.0 0.0 -1 ------- null}
r -t 0.30856 -s 0 -d 3 -p tcp -e 1000 -c 0 -i 3 -a 0 -x {0.0 3.0 3 ------- null}
+ -t 0.30856 -s 3 -d 0 -p ack -e 40 -c 0 -i 15 -a 0 -x {3.0 0.0 3 ------- null}
- -t 0.30856 -s 3 -d 0 -p ack -e 40 -c 0 -i 15 -a 0 -x {3.0 0.0 3 ------- null}
h -t 0.30856 -s 3 -d 0 -p ack -e 40 -c 0 -i 15 -a 0 -x {3.0 0.0 -1 ------- null}
r -t 0.311226666666667 -s 0 -d 3 -p tcp -e 1000 -c 0 -i 4 -a 0 -x {0.0 3.0 4 ------- null}
+ -t 0.311226666666667 -s 3 -d 0 -p ack -e 40 -c 0 -i 16 -a 0 -x {3.0 0.0 4 ------- null}
- -t 0.311226666666667 -s 3 -d 0 -p ack -e 40 -c 0 -i 16 -a 0 -x {3.0 0.0 4 ------- null}
h -t 0.311226666666667 -s 3 -d 0 -p ack -e 40 -c 0 -i 16 -a 0 -x {3.0 0.0 -1 ------- null}
r -t 0.313893333333333 -s 0 -d 3 -p tcp -e 1000 -c 0 -i 5 -a 0 -x {0.0 3.0 5 ------- null}
+ -t 0.313893333333333 -s 3 -d 0 -p ack -e 40 -c 0 -i 17 -a 0 -x {3.0 0.0 5 ------- null}
- -t 0.313893333333333 -s 3 -d 0 -p ack -e 40 -c 0 -i 17 -a 0 -x {3.0 0.0 5 ------- null}
h -t 0.313893333333333 -s 3 -d 0 -p ack -e 40 -c 0 -i 17 -a 0 -x {3.0 0.0 -1 ------- null}
r -t 0.31656 -s 0 -d 3 -p tcp -e 1000 -c 0 -i 6 -a 0 -x {0.0 3.0 6 ------- null}
+ -t 0.31656 -s 3 -d 0 -p ack -e 40 -c 0 -i 18 -a 0 -x {3.0 0.0 6 ------- null}
- -t 0.31656 -s 3 -d 0 -p ack -e 40 -c 0 -i 18 -a 0 -x {3.0 0.0 6 ------- null}
h -t 0.31656 -s 3 -d 0 -p ack -e 40 -c 0 -i 18 -a 0 -x {3.0 0.0 -1 ------- null}
r -t 0.319226666666667 -s 0 -d 3 -p tcp -e 1000 -c 0 -i 7 -a 0 -x {0.0 3.0 7 ------- null}
+ -t 0.319226666666667 -s 3 -d 0 -p ack -e 40 -c 0 -i 19 -a 0 -x {3.0 0.0 7 ------- null}
- -t 0.319226666666667 -s 3 -d 0 -p ack -e 40 -c 0 -i 19 -a 0 -x {3.0 0.0 7 ------- null}
h -t 0.319226666666667 -s 3 -d 0 -p ack -e 40 -c 0 -i 19 -a 0 -x {3.0 0.0 -1 ------- null}
r -t 0.321893333333333 -s 0 -d 3 -p tcp -e 1000 -c 0 -i 8 -a 0 -x {0.0 3.0 8 ------- null}
+ -t 0.321893333333333 -s 3 -d 0 -p ack -e 40 -c 0 -i 20 -a 0 -x {3.0 0.0 8 ------- null}
- -t 0.321893333333333 -s 3 -d 0 -p ack -e 40 -c 0 -i 20 -a 0 -x {3.0 0.0 8 ------- null}
h -t 0.321893333333333 -s 3 -d 0 -p ack -e 40 -c 0 -i 20 -a 0 -x {3.0 0.0 -1 ------- null}
r -t 0.32456 -s 0 -d 3 -p tcp -e 1000 -c 0 -i 9 -a 0 -x {0.0 3.0 9 ------- null}
+ -t 0.32456 -s 3 -d 0 -p ack -e 40 -c 0 -i 21 -a 0 -x {3.0 0.0 9 ------- null}
- -t 0.32456 -s 3 -d 0 -p ack -e 40 -c 0 -i 21 -a 0 -x {3.0 0.0 9 ------- null}
h -t 0.32456 -s 3 -d 0 -p ack -e 40 -c 0 -i 21 -a 0 -x {3.0 0.0 -1 ------- null}
r -t 0.348666666666667 -s 3 -d 0 -p ack -e 40 -c 0 -i 11 -a 0 -x {3.0 0.0 0 ------- null}
+ -t 0.348666666666667 -s 0 -d 3 -p tcp -e 1000 -c 0 -i 22 -a 0 -x {0.0 3.0 10 ------- null}
- -t 0.348666666666667 -s 0 -d 3 -p tcp -e 1000 -c 0 -i 22 -a 0 -x {0.0 3.0 10 ------- null}
h -t 0.348666666666667 -s 0 -d 3 -p tcp -e 1000 -c 0 -i 22 -a 0 -x {0.0 3.0 -1 ------- null}
r -t 0.348666666666667 -s 2 -d 1 -p ack -e 40 -c 1 -i 12 -a 1 -x {2.0 1.0 0 ------- null}
+ -t 0.348666666666667 -s 1 -d 2 -p tcp -e 1000 -c 1 -i 23 -a 1 -x {1.0 2.0 1 ------- null}
- -t 0.348666666666667 -s 1 -d 2 -p tcp -e 1000 -c 1 -i 23 -a 1 -x {1.0 2.0 1 ------- null}
h -t 0.348666666666667 -s 1 -d 2 -p tcp -e 1000 -c 1 -i 23 -a 1 -x {1.0 2.0 -1 ------- null}
r -t 0.351333333333333 -s 3 -d 0 -p ack -e 40 -c 0 -i 13 -a 0 -x {3.0 0.0 1 ------- null}
+ -t 0.351333333333333 -s 0 -d 3 -p tcp -e 1000 -c 0 -i 24 -a 0 -x {0.0 3.0 11 ------- null}
- -t 0.351333333333333 -s 0 -d 3 -p tcp -e 1000 -c 0 -i 24 -a 0 -x {0.0 3.0 11 ------- null}
h -t 0.351333333333333 -s 0 -d 3 -p tcp -e 1000 -c 0 -i 24 -a 0 -x {0.0 3.0 -1 ------- null}
r -t 0.354 -s 3 -d 0 -p ack -e 40 -c 0 -i 14 -a 0 -x {3.0 0.0 2 ------- null}
+ -t 0.354 -s 0 -d 3 -p tcp -e 1000 -c 0 -i 25 -a 0 -x {0.0 3.0 12 ------- null}
- -t 0.354 -s 0 -d 3 -p tcp -e 1000 -c 0 -i 25 -a 0 -x {0.0 3.0 12 ------- null}
h -t 0.354 -s 0 -d 3 -p tcp -e 1000 -c 0 -i 25 -a 0 -x {0.0 3.0 -1 ------- null}
r -t 0.356666666666667 -s 3 -d 0 -p ack -e 40 -c 0 -i 15 -a 0 -x {3.0 0.0 3 ------- null}
+ -t 0.356666666666667 -s 0 -d 3 -p tcp -e 1000 -c 0 -i 26 -a 0 -x {0.0 3.0 13 ------- null}
- -t 0.356666666666667 -s 0 -d 3 -p tcp -e 1000 -c 0 -i 26 -a 0 -x {0.0 3.0 13 ------- null}
h -t 0.356666666666667 -s 0 -d 3 -p tcp -e 1000 -c 0 -i 26 -a 0 -x {0.0 3.0 -1 ------- null}
r -t 0.359333333333333 -s 3 -d 0 -p ack -e 40 -c 0 -i 16 -a 0 -x {3.0 0.0 4 ------- null}
+ -t 0.359333333333333 -s 0 -d 3 -p tcp -e 1000 -c 0 -i 27 -a 0 -x {0.0 3.0 14 ------- null}
- -t 0.359333333333333 -s 0 -d 3 -p tcp -e 1000 -c 0 -i 27 -a 0 -x {0.0 3.0 14 ------- null}
h -t 0.359333333333333 -s 0 -d 3 -p tcp -e 1000 -c 0 -i 27 -a 0 -x {0.0 3.0 -1 ------- null}
r -t 0.362 -s 3 -d 0 -p ack -e 40 -c 0 -i 17 -a 0 -x {3.0 0.0 5 ------- null}
+ -t 0.362 -s 0 -d 3 -p tcp -e 1000 -c 0 -i 28 -a 0 -x {0.0 3.0 15 ------- null}
- -t 0.362 -s 0 -d 3 -p tcp -e 1000 -c 0 -i 28 -a 0 -x {0.0 3.0 15 ------- null}
h -t 0.362 -s 0 -d 3 -p tcp -e 1000 -c 0 -i 28 -a 0 -x {0.0 3.0 -1 ------- null}
r -t 0.364666666666667 -s 3 -d 0 -p ack -e 40 -c 0 -i 18 -a 0 -x {3.0 0.0 6 ------- null}
+ -t 0.364666666666667 -s 0 -d 3 -p tcp -e 1000 -c 0 -i 29 -a 0 -x {0.0 3.0 16 ------- null}
- -t 0.364666666666667 -s 0 -d 3 -p tcp -e 1000 -c 0 -i 29 -a 0 -x {0.0 3.0 16 ------- null}
h -t 0.364666666666667 -s 0 -d 3 -p tcp -e 1000 -c 0 -i 29 -a 0 -x {0.0 3.0 -1 ------- null}
r -t 0.367333333333333 -s 3 -d 0 -p ack -e 40 -c 0 -i 19 -a 0 -x {3.0 0.0 7 ------- null}
+ -t 0.367333333333333 -s 0 -d 3 -p tcp -e 1000 -c 0 -i 30 -a 0 -x {0.0 3.0 17 ------- null}
- -t 0.367333333333333 -s 0 -d 3 -p tcp -e 1000 -c 0 -i 30 -a 0 -x {0.0 3.0 17 ------- null}
h -t 0.367333333333333 -s 0 -d 3 -p tcp -e 1000 -c 0 -i 30 -a 0 -x {0.0 3.0 -1 ------- null}
r -t 0.37 -s 3 -d 0 -p ack -e 40 -c 0 -i 20 -a 0 -x {3.0 0.0 8 ------- null}
+ -t 0.37 -s 0 -d 3 -p tcp -e 1000 -c 0 -i 31 -a 0 -x {0.0 3.0 18 ------- null}
- -t 0.37 -s 0 -d 3 -p tcp -e 1000 -c 0 -i 31 -a 0 -x {0.0 3.0 18 ------- null}
h -t 0.37 -s 0 -d 3 -p tcp -e 1000 -c 0 -i 31 -a 0 -x {0.0 3.0 -1 ------- null}
r -t 0.372666666666667 -s 3 -d 0 -p ack -e 40 -c 0 -i 21 -a 0 -x {3.0 0.0 9 ------- null}
+ -t 0.372666666666667 -s 0 -d 3 -p tcp -e 1000 -c 0 -i 32 -a 0 -x {0.0 3.0 19 ------- null}
- -t 0.372666666666667 -s 0 -d 3 -p tcp -e 1000 -c 0 -i 32 -a 0 -x {0.0 3.0 19 ------- null}
h -t 0.372666666666667 -s 0 -d 3 -p tcp -e 1000 -c 0 -i 32 -a 0 -x {0.0 3.0 -1 ------- null}
r -t 0.399333333333333 -s 0 -d 3 -p tcp -e 1000 -c 0 -i 22 -a 0 -x {0.0 3.0 10 ------- null}
+ -t 0.399333333333333 -s 3 -d 0 -p ack -e 40 -c 0 -i 33 -a 0 -x {3.0 0.0 10 ------- null}
- -t 0.399333333333333 -s 3 -d 0 -p ack -e 40 -c 0 -i 33 -a 0 -x {3.0 0.0 10 ------- null}
h -t 0.399333333333333 -s 3 -d 0 -p ack -e 40 -c 0 -i 33 -a 0 -x {3.0 0.0 -1 ------- null}
r -t 0.399333333333333 -s 1 -d 2 -p tcp -e 1000 -c 1 -i 23 -a 1 -x {1.0 2.0 1 ------- null}
+ -t 0.399333333333333 -s 2 -d 1 -p ack -e 40 -c 1 -i 34 -a 1 -x {2.0 1.0 1 ------- null}
- -t 0.399333333333333 -s 2 -d 1 -p ack -e 40 -c 1 -i 34 -a 1 -x {2.0 1.0 1 ------- null}
h -t 0.399333333333333 -s 2 -d 1 -p ack -e 40 -c 1 -i 34 -a 1 -x {2.0 1.0 -1 ------- null}
r -t 0.402 -s 0 -d 3 -p tcp -e 1000 -c 0 -i 24 -a 0 -x {0.0 3.0 11 ------- null}
+ -t 0.402 -s 3 -d 0 -p ack -e 40 -c 0 -i 35 -a 0 -x {3.0 0.0 11 ------- null}
- -t 0.402 -s 3 -d 0 -p ack -e 40 -c 0 -i 35 -a 0 -x {3.0 0.0 11 ------- null}
h -t 0.402 -s 3 -d 0 -p ack -e 40 -c 0 -i 35 -a 0 -x {3.0 0.0 -1 ------- null}
r -t 0.404666666666667 -s 0 -d 3 -p tcp -e 1000 -c 0 -i 25 -a 0 -x {0.0 3.0 12 ------- null}
+ -t 0.404666666666667 -s 3 -d 0 -p ack -e 40 -c 0 -i 36 -a 0 -x {3.0 0.0 12 ------- null}
- -t 0.404666666666667 -s 3 -d 0 -p ack -e 40 -c 0 -i 36 -a 0 -x {3.0 0.0 12 ------- null}
h -t 0.404666666666667 -s 3 -d 0 -p ack -e 40 -c 0 -i 36 -a 0 -x {3.0 0.0 -1 ------- null}
r -t 0.407333333333333 -s 0 -d 3 -p tcp -e 1000 -c 0 -i 26 -a 0 -x {0.0 3.0 13 ------- null}
+ -t 0.407333333333333 -s 3 -d 0 -p ack -e 40 -c 0 -i 37 -a 0 -x {3.0 0.0 13 ------- null}
- -t 0.407333333333333 -s 3 -d 0 -p ack -e 40 -c 0 -i 37 -a 0 -x {3.0 0.0 13 ------- null}
h -t 0.407333333333333 -s 3 -d 0 -p ack -e 40 -c 0 -i 37 -a 0 -x {3.0 0.0 -1 ------- null}
r -t 0.41 -s 0 -d 3 -p tcp -e 1000 -c 0 -i 27 -a 0 -x {0.0 3.0 14 ------- null}
+ -t 0.41 -s 3 -d 0 -p ack -e 40 -c 0 -i 38 -a 0 -x {3.0 0.0 14 ------- null}
- -t 0.41 -s 3 -d 0 -p ack -e 40 -c 0 -i 38 -a 0 -x {3.0 0.0 14 ------- null}
h -t 0.41 -s 3 -d 0 -p ack -e 40 -c 0 -i 38 -a 0 -x {3.0 0.0 -1 ------- null}
r -t 0.412666666666667 -s 0 -d 3 -p tcp -e 1000 -c 0 -i 28 -a 0 -x {0.0 3.0 15 ------- null}
+ -t 0.412666666666667 -s 3 -d 0 -p ack -e 40 -c 0 -i 39 -a 0 -x {3.0 0.0 15 ------- null}
- -t 0.412666666666667 -s 3 -d 0 -p ack -e 40 -c 0 -i 39 -a 0 -x {3.0 0.0 15 ------- null}
h -t 0.412666666666667 -s 3 -d 0 -p ack -e 40 -c 0 -i 39 -a 0 -x {3.0 0.0 -1 ------- null}
r -t 0.415333333333333 -s 0 -d 3 -p tcp -e 1000 -c 0 -i 29 -a 0 -x {0.0 3.0 16 ------- null}
+ -t 0.415333333333333 -s 3 -d 0 -p ack -e 40 -c 0 -i 40 -a 0 -x {3.0 0.0 16 ------- null}
- -t 0.415333333333333 -s 3 -d 0 -p ack -e 40 -c 0 -i 40 -a 0 -x {3.0 0.0 16 ------- null}
h -t 0.415333333333333 -s 3 -d 0 -p ack -e 40 -c 0 -i 40 -a 0 -x {3.0 0.0 -1 ------- null}
r -t 0.418 -s 0 -d 3 -p tcp -e 1000 -c 0 -i 30 -a 0 -x {0.0 3.0 17 ------- null}
+ -t 0.418 -s 3 -d 0 -p ack -e 40 -c 0 -i 41 -a 0 -x {3.0 0.0 17 ------- null}
- -t 0.418 -s 3 -d 0 -p ack -e 40 -c 0 -i 41 -a 0 -x {3.0 0.0 17 ------- null}
h -t 0.418 -s 3 -d 0 -p ack -e 40 -c 0 -i 41 -a 0 -x {3.0 0.0 -1 ------- null}
r -t 0.420666666666667 -s 0 -d 3 -p tcp -e 1000 -c 0 -i 31 -a 0 -x {0.0 3.0 18 ------- null}
+ -t 0.420666666666667 -s 3 -d 0 -p ack -e 40 -c 0 -i 42 -a 0 -x {3.0 0.0 18 ------- null}
- -t 0.420666666666667 -s 3 -d 0 -p ack -e 40 -c 0 -i 42 -a 0 -x {3.0 0.0 18 ------- null}
h -t 0.420666666666667 -s 3 -d 0 -p ack -e 40 -c 0 -i 42 -a 0 -x {3.0 0.0 -1 ------- null}
r -t 0.423333333333333 -s 0 -d 3 -p tcp -e 1000 -c 0 -i 32 -a 0 -x {0.0 3.0 19 ------- null}
+ -t 0.423333333333333 -s 3 -d 0 -p ack -e 40 -c 0 -i 43 -a 0 -x {3.0 0.0 19 ------- null}
- -t 0.423333333333333 -s 3 -d 0 -p ack -e 40 -c 0 -i 43 -a 0 -x {3.0 0.0 19 ------- null}
h -t 0.423333333333333 -s 3 -d 0 -p ack -e 40 -c 0 -i 43 -a 0 -x {3.0 0.0 -1 ------- null}
r -t 0.44744 -s 3 -d 0 -p ack -e 40 -c 0 -i 33 -a 0 -x {3.0 0.0 10 ------- null}
+ -t 0.44744 -s 0 -d 3 -p tcp -e 1000 -c 0 -i 44 -a 0 -x {0.0 3.0 20 ------- null}
- -t 0.44744 -s 0 -d 3 -p tcp -e 1000 -c 0 -i 44 -a 0 -x {0.0 3.0 20 ------- null}
h -t 0.44744 -s 0 -d 3 -p tcp -e 1000 -c 0 -i 44 -a 0 -x {0.0 3.0 -1 ------- null}
r -t 0.44744 -s 2 -d 1 -p ack -e 40 -c 1 -i 34 -a 1 -x {2.0 1.0 1 ------- null}
+ -t 0.44744 -s 1 -d 2 -p tcp -e 1000 -c 1 -i 45 -a 1 -x {1.0 2.0 2 ------- null}
- -t 0.44744 -s 1 -d 2 -p tcp -e 1000 -c 1 -i 45 -a 1 -x {1.0 2.0 2 ------- null}
h -t 0.44744 -s 1 -d 2 -p tcp -e 1000 -c 1 -i 45 -a 1 -x {1.0 2.0 -1 ------- null}
r -t 0.450106666666667 -s 3 -d 0 -p ack -e 40 -c 0 -i 35 -a 0 -x {3.0 0.0 11 ------- null}
+ -t 0.450106666666667 -s 0 -d 3 -p tcp -e 1000 -c 0 -i 46 -a 0 -x {0.0 3.0 21 ------- null}
- -t 0.450106666666667 -s 0 -d 3 -p tcp -e 1000 -c 0 -i 46 -a 0 -x {0.0 3.0 21 ------- null}
h -t 0.450106666666667 -s 0 -d 3 -p tcp -e 1000 -c 0 -i 46 -a 0 -x {0.0 3.0 -1 ------- null}
r -t 0.452773333333333 -s 3 -d 0 -p ack -e 40 -c 0 -i 36 -a 0 -x {3.0 0.0 12 ------- null}
+ -t 0.452773333333333 -s 0 -d 3 -p tcp -e 1000 -c 0 -i 47 -a 0 -x {0.0 3.0 22 ------- null}
- -t 0.452773333333333 -s 0 -d 3 -p tcp -e 1000 -c 0 -i 47 -a 0 -x {0.0 3.0 22 ------- null}
h -t 0.452773333333333 -s 0 -d 3 -p tcp -e 1000 -c 0 -i 47 -a 0 -x {0.0 3.0 -1 ------- null}
r -t 0.45544 -s 3 -d 0 -p ack -e 40 -c 0 -i 37 -a 0 -x {3.0 0.0 13 ------- null}
+ -t 0.45544 -s 0 -d 3 -p tcp -e 1000 -c 0 -i 48 -a 0 -x {0.0 3.0 23 ------- null}
- -t 0.45544 -s 0 -d 3 -p tcp -e 1000 -c 0 -i 48 -a 0 -x {0.0 3.0 23 ------- null}
h -t 0.45544 -s 0 -d 3 -p tcp -e 1000 -c 0 -i 48 -a 0 -x {0.0 3.0 -1 ------- null}
r -t 0.458106666666667 -s 3 -d 0 -p ack -e 40 -c 0 -i 38 -a 0 -x {3.0 0.0 14 ------- null}
+ -t 0.458106666666667 -s 0 -d 3 -p tcp -e 1000 -c 0 -i 49 -a 0 -x {0.0 3.0 24 ------- null}
- -t 0.458106666666667 -s 0 -d 3 -p tcp -e 1000 -c 0 -i 49 -a 0 -x {0.0 3.0 24 ------- null}
h -t 0.458106666666667 -s 0 -d 3 -p tcp -e 1000 -c 0 -i 49 -a 0 -x {0.0 3.0 -1 ------- null}
r -t 0.460773333333333 -s 3 -d 0 -p ack -e 40 -c 0 -i 39 -a 0 -x {3.0 0.0 15 ------- null}
+ -t 0.460773333333333 -s 0 -d 3 -p tcp -e 1000 -c 0 -i 50 -a 0 -x {0.0 3.0 25 ------- null}
- -t 0.460773333333333 -s 0 -d 3 -p tcp -e 1000 -c 0 -i 50 -a 0 -x {0.0 3.0 25 ------- null}
h -t 0.460773333333333 -s 0 -d 3 -p tcp -e 1000 -c 0 -i 50 -a 0 -x {0.0 3.0 -1 ------- null}
r -t 0.46344 -s 3 -d 0 -p ack -e 40 -c 0 -i 40 -a 0 -x {3.0 0.0 16 ------- null}
+ -t 0.46344 -s 0 -d 3 -p tcp -e 1000 -c 0 -i 51 -a 0 -x {0.0 3.0 26 ------- null}
- -t 0.46344 -s 0 -d 3 -p tcp -e 1000 -c 0 -i 51 -a 0 -x {0.0 3.0 26 ------- null}
h -t 0.46344 -s 0 -d 3 -p tcp -e 1000 -c 0 -i 51 -a 0 -x {0.0 3.0 -1 ------- null}
r -t 0.466106666666667 -s 3 -d 0 -p ack -e 40 -c 0 -i 41 -a 0 -x {3.0 0.0 17 ------- null}
+ -t 0.466106666666667 -s 0 -d 3 -p tcp -e 1000 -c 0 -i 52 -a 0 -x {0.0 3.0 27 ------- null}
- -t 0.466106666666667 -s 0 -d 3 -p tcp -e 1000 -c 0 -i 52 -a 0 -x {0.0 3.0 27 ------- null}
h -t 0.466106666666667 -s 0 -d 3 -p tcp -e 1000 -c 0 -i 52 -a 0 -x {0.0 3.0 -1 ------- null}
r -t 0.468773333333333 -s 3 -d 0 -p ack -e 40 -c 0 -i 42 -a 0 -x {3.0 0.0 18 ------- null}
+ -t 0.468773333333333 -s 0 -d 3 -p tcp -e 1000 -c 0 -i 53 -a 0 -x {0.0 3.0 28 ------- null}
- -t 0.468773333333333 -s 0 -d 3 -p tcp -e 1000 -c 0 -i 53 -a 0 -x {0.0 3.0 28 ------- null}
h -t 0.468773333333333 -s 0 -d 3 -p tcp -e 1000 -c 0 -i 53 -a 0 -x {0.0 3.0 -1 ------- null}
r -t 0.47144 -s 3 -d 0 -p ack -e 40 -c 0 -i 43 -a 0 -x {3.0 0.0 19 ------- null}
+ -t 0.47144 -s 0 -d 3 -p tcp -e 1000 -c 0 -i 54 -a 0 -x {0.0 3.0 29 ------- null}
- -t 0.47144 -s 0 -d 3 -p tcp -e 1000 -c 0 -i 54 -a 0 -x {0.0 3.0 29 ------- null}
h -t 0.47144 -s 0 -d 3 -p tcp -e 1000 -c 0 -i 54 -a 0 -x {0.0 3.0 -1 ------- null}
r -t 0.498106666666667 -s 0 -d 3 -p tcp -e 1000 -c 0 -i 44 -a 0 -x {0.0 3.0 20 ------- null}
+ -t 0.498106666666667 -s 3 -d 0 -p ack -e 40 -c 0 -i 55 -a 0 -x {3.0 0.0 20 ------- null}
- -t 0.498106666666667 -s 3 -d 0 -p ack -e 40 -c 0 -i 55 -a 0 -x {3.0 0.0 20 ------- null}
h -t 0.498106666666667 -s 3 -d 0 -p ack -e 40 -c 0 -i 55 -a 0 -x {3.0 0.0 -1 ------- null}
r -t 0.498106666666667 -s 1 -d 2 -p tcp -e 1000 -c 1 -i 45 -a 1 -x {1.0 2.0 2 ------- null}
+ -t 0.498106666666667 -s 2 -d 1 -p ack -e 40 -c 1 -i 56 -a 1 -x {2.0 1.0 2 ------- null}
- -t 0.498106666666667 -s 2 -d 1 -p ack -e 40 -c 1 -i 56 -a 1 -x {2.0 1.0 2 ------- null}
h -t 0.498106666666667 -s 2 -d 1 -p ack -e 40 -c 1 -i 56 -a 1 -x {2.0 1.0 -1 ------- null}
r -t 0.500773333333333 -s 0 -d 3 -p tcp -e 1000 -c 0 -i 46 -a 0 -x {0.0 3.0 21 ------- null}
+ -t 0.500773333333333 -s 3 -d 0 -p ack -e 40 -c 0 -i 57 -a 0 -x {3.0 0.0 21 ------- null}
- -t 0.500773333333333 -s 3 -d 0 -p ack -e 40 -c 0 -i 57 -a 0 -x {3.0 0.0 21 ------- null}
h -t 0.500773333333333 -s 3 -d 0 -p ack -e 40 -c 0 -i 57 -a 0 -x {3.0 0.0 -1 ------- null}
r -t 0.50344 -s 0 -d 3 -p tcp -e 1000 -c 0 -i 47 -a 0 -x {0.0 3.0 22 ------- null}
+ -t 0.50344 -s 3 -d 0 -p ack -e 40 -c 0 -i 58 -a 0 -x {3.0 0.0 22 ------- null}
- -t 0.50344 -s 3 -d 0 -p ack -e 40 -c 0 -i 58 -a 0 -x {3.0 0.0 22 ------- null}
h -t 0.50344 -s 3 -d 0 -p ack -e 40 -c 0 -i 58 -a 0 -x {3.0 0.0 -1 ------- null}
r -t 0.506106666666667 -s 0 -d 3 -p tcp -e 1000 -c 0 -i 48 -a 0 -x {0.0 3.0 23 ------- null}
+ -t 0.506106666666667 -s 3 -d 0 -p ack -e 40 -c 0 -i 59 -a 0 -x {3.0 0.0 23 ------- null}
- -t 0.506106666666667 -s 3 -d 0 -p ack -e 40 -c 0 -i 59 -a 0 -x {3.0 0.0 23 ------- null}
h -t 0.506106666666667 -s 3 -d 0 -p ack -e 40 -c 0 -i 59 -a 0 -x {3.0 0.0 -1 ------- null}
r -t 0.508773333333333 -s 0 -d 3 -p tcp -e 1000 -c 0 -i 49 -a 0 -x {0.0 3.0 24 ------- null}
+ -t 0.508773333333333 -s 3 -d 0 -p ack -e 40 -c 0 -i 60 -a 0 -x {3.0 0.0 24 ------- null}
- -t 0.508773333333333 -s 3 -d 0 -p ack -e 40 -c 0 -i 60 -a 0 -x {3.0 0.0 24 ------- null}
h -t 0.508773333333333 -s 3 -d 0 -p ack -e 40 -c 0 -i 60 -a 0 -x {3.0 0.0 -1 ------- null}
r -t 0.51144 -s 0 -d 3 -p tcp -e 1000 -c 0 -i 50 -a 0 -x {0.0 3.0 25 ------- null}
+ -t 0.51144 -s 3 -d 0 -p ack -e 40 -c 0 -i 61 -a 0 -x {3.0 0.0 25 ------- null}
- -t 0.51144 -s 3 -d 0 -p ack -e 40 -c 0 -i 61 -a 0 -x {3.0 0.0 25 ------- null}
h -t 0.51144 -s 3 -d 0 -p ack -e 40 -c 0 -i 61 -a 0 -x {3.0 0.0 -1 ------- null}
r -t 0.514106666666667 -s 0 -d 3 -p tcp -e 1000 -c 0 -i 51 -a 0 -x {0.0 3.0 26 ------- null}
+ -t 0.514106666666667 -s 3 -d 0 -p ack -e 40 -c 0 -i 62 -a 0 -x {3.0 0.0 26 ------- null}
- -t 0.514106666666667 -s 3 -d 0 -p ack -e 40 -c 0 -i 62 -a 0 -x {3.0 0.0 26 ------- null}
h -t 0.514106666666667 -s 3 -d 0 -p ack -e 40 -c 0 -i 62 -a 0 -x {3.0 0.0 -1 ------- null}
r -t 0.516773333333333 -s 0 -d 3 -p tcp -e 1000 -c 0 -i 52 -a 0 -x {0.0 3.0 27 ------- null}
+ -t 0.516773333333333 -s 3 -d 0 -p ack -e 40 -c 0 -i 63 -a 0 -x {3.0 0.0 27 ------- null}
- -t 0.516773333333333 -s 3 -d 0 -p ack -e 40 -c 0 -i 63 -a 0 -x {3.0 0.0 27 ------- null}
h -t 0.516773333333333 -s 3 -d 0 -p ack -e 40 -c 0 -i 63 -a 0 -x {3.0 0.0 -1 ------- null}
r -t 0.51944 -s 0 -d 3 -p tcp -e 1000 -c 0 -i 53 -a 0 -x {0.0 3.0 28 ------- null}
+ -t 0.51944 -s 3 -d 0 -p ack -e 40 -c 0 -i 64 -a 0 -x {3.0 0.0 28 ------- null}
- -t 0.51944 -s 3 -d 0 -p ack -e 40 -c 0 -i 64 -a 0 -x {3.0 0.0 28 ------- null}
h -t 0.51944 -s 3 -d 0 -p ack -e 40 -c 0 -i 64 -a 0 -x {3.0 0.0 -1 ------- null}
r -t 0.522106666666667 -s 0 -d 3 -p tcp -e 1000 -c 0 -i 54 -a 0 -x {0.0 3.0 29 ------- null}
+ -t 0.522106666666667 -s 3 -d 0 -p ack -e 40 -c 0 -i 65 -a 0 -x {3.0 0.0 29 ------- null}
- -t 0.522106666666667 -s 3 -d 0 -p ack -e 40 -c 0 -i 65 -a 0 -x {3.0 0.0 29 ------- null}
h -t 0.522106666666667 -s 3 -d 0 -p ack -e 40 -c 0 -i 65 -a 0 -x {3.0 0.0 -1 ------- null}
r -t 0.546213333333333 -s 3 -d 0 -p ack -e 40 -c 0 -i 55 -a 0 -x {3.0 0.0 20 ------- null}
+ -t 0.546213333333333 -s 0 -d 3 -p tcp -e 1000 -c 0 -i 66 -a 0 -x {0.0 3.0 30 ------- null}
- -t 0.546213333333333 -s 0 -d 3 -p tcp -e 1000 -c 0 -i 66 -a 0 -x {0.0 3.0 30 ------- null}
h -t 0.546213333333333 -s 0 -d 3 -p tcp -e 1000 -c 0 -i 66 -a 0 -x {0.0 3.0 -1 ------- null}
r -t 0.546213333333333 -s 2 -d 1 -p ack -e 40 -c 1 -i 56 -a 1 -x {2.0 1.0 2 ------- null}
+ -t 0.546213333333333 -s 1 -d 2 -p tcp -e 1000 -c 1 -i 67 -a 1 -x {1.0 2.0 3 ------- null}
- -t 0.546213333333333 -s 1 -d 2 -p tcp -e 1000 -c 1 -i 67 -a 1 -x {1.0 2.0 3 ------- null}
h -t 0.546213333333333 -s 1 -d 2 -p tcp -e 1000 -c 1 -i 67 -a 1 -x {1.0 2.0 -1 ------- null}
r -t 0.54888 -s 3 -d 0 -p ack -e 40 -c 0 -i 57 -a 0 -x {3.0 0.0 21 ------- null}
+ -t 0.54888 -s 0 -d 3 -p tcp -e 1000 -c 0 -i 68 -a 0 -x {0.0 3.0 31 ------- null}
- -t 0.54888 -s 0 -d 3 -p tcp -e 1000 -c 0 -i 68 -a 0 -x {0.0 3.0 31 ------- null}
h -t 0.54888 -s 0 -d 3 -p tcp -e 1000 -c 0 -i 68 -a 0 -x {0.0 3.0 -1 ------- null}
r -t 0.551546666666667 -s 3 -d 0 -p ack -e 40 -c 0 -i 58 -a 0 -x {3.0 0.0 22 ------- null}
+ -t 0.551546666666667 -s 0 -d 3 -p tcp -e 1000 -c 0 -i 69 -a 0 -x {0.0 3.0 32 ------- null}
- -t 0.551546666666667 -s 0 -d 3 -p tcp -e 1000 -c 0 -i 69 -a 0 -x {0.0 3.0 32 ------- null}
h -t 0.551546666666667 -s 0 -d 3 -p tcp -e 1000 -c 0 -i 69 -a 0 -x {0.0 3.0 -1 ------- null}
r -t 0.554213333333333 -s 3 -d 0 -p ack -e 40 -c 0 -i 59 -a 0 -x {3.0 0.0 23 ------- null}
+ -t 0.554213333333333 -s 0 -d 3 -p tcp -e 1000 -c 0 -i 70 -a 0 -x {0.0 3.0 33 ------- null}
- -t 0.554213333333333 -s 0 -d 3 -p tcp -e 1000 -c 0 -i 70 -a 0 -x {0.0 3.0 33 ------- null}
h -t 0.554213333333333 -s 0 -d 3 -p tcp -e 1000 -c 0 -i 70 -a 0 -x {0.0 3.0 -1 ------- null}
r -t 0.55688 -s 3 -d 0 -p ack -e 40 -c 0 -i 60 -a 0 -x {3.0 0.0 24 ------- null}
+ -t 0.55688 -s 0 -d 3 -p tcp -e 1000 -c 0 -i 71 -a 0 -x {0.0 3.0 34 ------- null}
- -t 0.55688 -s 0 -d 3 -p tcp -e 1000 -c 0 -i 71 -a 0 -x {0.0 3.0 34 ------- null}
h -t 0.55688 -s 0 -d 3 -p tcp -e 1000 -c 0 -i 71 -a 0 -x {0.0 3.0 -1 ------- null}
r -t 0.559546666666667 -s 3 -d 0 -p ack -e 40 -c 0 -i 61 -a 0 -x {3.0 0.0 25 ------- null}
+ -t 0.559546666666667 -s 0 -d 3 -p tcp -e 1000 -c 0 -i 72 -a 0 -x {0.0 3.0 35 ------- null}
- -t 0.559546666666667 -s 0 -d 3 -p tcp -e 1000 -c 0 -i 72 -a 0 -x {0.0 3.0 35 ------- null}
h -t 0.559546666666667 -s 0 -d 3 -p tcp -e 1000 -c 0 -i 72 -a 0 -x {0.0 3.0 -1 ------- null}
r -t 0.562213333333333 -s 3 -d 0 -p ack -e 40 -c 0 -i 62 -a 0 -x {3.0 0.0 26 ------- null}
+ -t 0.562213333333333 -s 0 -d 3 -p tcp -e 1000 -c 0 -i 73 -a 0 -x {0.0 3.0 36 ------- null}
- -t 0.562213333333334 -s 0 -d 3 -p tcp -e 1000 -c 0 -i 73 -a 0 -x {0.0 3.0 36 ------- null}
h -t 0.562213333333334 -s 0 -d 3 -p tcp -e 1000 -c 0 -i 73 -a 0 -x {0.0 3.0 -1 ------- null}
r -t 0.56488 -s 3 -d 0 -p ack -e 40 -c 0 -i 63 -a 0 -x {3.0 0.0 27 ------- null}
+ -t 0.56488 -s 0 -d 3 -p tcp -e 1000 -c 0 -i 74 -a 0 -x {0.0 3.0 37 ------- null}
- -t 0.56488 -s 0 -d 3 -p tcp -e 1000 -c 0 -i 74 -a 0 -x {0.0 3.0 37 ------- null}
h -t 0.56488 -s 0 -d 3 -p tcp -e 1000 -c 0 -i 74 -a 0 -x {0.0 3.0 -1 ------- null}
r -t 0.567546666666667 -s 3 -d 0 -p ack -e 40 -c 0 -i 64 -a 0 -x {3.0 0.0 28 ------- null}
+ -t 0.567546666666667 -s 0 -d 3 -p tcp -e 1000 -c 0 -i 75 -a 0 -x {0.0 3.0 38 ------- null}
- -t 0.567546666666667 -s 0 -d 3 -p tcp -e 1000 -c 0 -i 75 -a 0 -x {0.0 3.0 38 ------- null}
h -t 0.567546666666667 -s 0 -d 3 -p tcp -e 1000 -c 0 -i 75 -a 0 -x {0.0 3.0 -1 ------- null}
r -t 0.570213333333333 -s 3 -d 0 -p ack -e 40 -c 0 -i 65 -a 0 -x {3.0 0.0 29 ------- null}
+ -t 0.570213333333333 -s 0 -d 3 -p tcp -e 1000 -c 0 -i 76 -a 0 -x {0.0 3.0 39 ------- null}
- -t 0.570213333333334 -s 0 -d 3 -p tcp -e 1000 -c 0 -i 76 -a 0 -x {0.0 3.0 39 ------- null}
h -t 0.570213333333334 -s 0 -d 3 -p tcp -e 1000 -c 0 -i 76 -a 0 -x {0.0 3.0 -1 ------- null}
r -t 0.59688 -s 0 -d 3 -p tcp -e 1000 -c 0 -i 66 -a 0 -x {0.0 3.0 30 ------- null}
+ -t 0.59688 -s 3 -d 0 -p ack -e 40 -c 0 -i 77 -a 0 -x {3.0 0.0 30 ------- null}
- -t 0.59688 -s 3 -d 0 -p ack -e 40 -c 0 -i 77 -a 0 -x {3.0 0.0 30 ------- null}
h -t 0.59688 -s 3 -d 0 -p ack -e 40 -c 0 -i 77 -a 0 -x {3.0 0.0 -1 ------- null}
r -t 0.59688 -s 1 -d 2 -p tcp -e 1000 -c 1 -i 67 -a 1 -x {1.0 2.0 3 ------- null}
+ -t 0.59688 -s 2 -d 1 -p ack -e 40 -c 1 -i 78 -a 1 -x {2.0 1.0 3 ------- null}
- -t 0.59688 -s 2 -d 1 -p ack -e 40 -c 1 -i 78 -a 1 -x {2.0 1.0 3 ------- null}
h -t 0.59688 -s 2 -d 1 -p ack -e 40 -c 1 -i 78 -a 1 -x {2.0 1.0 -1 ------- null}
r -t 0.599546666666667 -s 0 -d 3 -p tcp -e 1000 -c 0 -i 68 -a 0 -x {0.0 3.0 31 ------- null}
+ -t 0.599546666666667 -s 3 -d 0 -p ack -e 40 -c 0 -i 79 -a 0 -x {3.0 0.0 31 ------- null}
- -t 0.599546666666667 -s 3 -d 0 -p ack -e 40 -c 0 -i 79 -a 0 -x {3.0 0.0 31 ------- null}
h -t 0.599546666666667 -s 3 -d 0 -p ack -e 40 -c 0 -i 79 -a 0 -x {3.0 0.0 -1 ------- null}
r -t 0.602213333333333 -s 0 -d 3 -p tcp -e 1000 -c 0 -i 69 -a 0 -x {0.0 3.0 32 ------- null}
+ -t 0.602213333333333 -s 3 -d 0 -p ack -e 40 -c 0 -i 80 -a 0 -x {3.0 0.0 32 ------- null}
- -t 0.602213333333333 -s 3 -d 0 -p ack -e 40 -c 0 -i 80 -a 0 -x {3.0 0.0 32 ------- null}
h -t 0.602213333333333 -s 3 -d 0 -p ack -e 40 -c 0 -i 80 -a 0 -x {3.0 0.0 -1 ------- null}
r -t 0.60488 -s 0 -d 3 -p tcp -e 1000 -c 0 -i 70 -a 0 -x {0.0 3.0 33 ------- null}
+ -t 0.60488 -s 3 -d 0 -p ack -e 40 -c 0 -i 81 -a 0 -x {3.0 0.0 33 ------- null}
- -t 0.60488 -s 3 -d 0 -p ack -e 40 -c 0 -i 81 -a 0 -x {3.0 0.0 33 ------- null}
h -t 0.60488 -s 3 -d 0 -p ack -e 40 -c 0 -i 81 -a 0 -x {3.0 0.0 -1 ------- null}
r -t 0.607546666666667 -s 0 -d 3 -p tcp -e 1000 -c 0 -i 71 -a 0 -x {0.0 3.0 34 ------- null}
+ -t 0.607546666666667 -s 3 -d 0 -p ack -e 40 -c 0 -i 82 -a 0 -x {3.0 0.0 34 ------- null}
- -t 0.607546666666667 -s 3 -d 0 -p ack -e 40 -c 0 -i 82 -a 0 -x {3.0 0.0 34 ------- null}
h -t 0.607546666666667 -s 3 -d 0 -p ack -e 40 -c 0 -i 82 -a 0 -x {3.0 0.0 -1 ------- null}
r -t 0.610213333333334 -s 0 -d 3 -p tcp -e 1000 -c 0 -i 72 -a 0 -x {0.0 3.0 35 ------- null}
+ -t 0.610213333333334 -s 3 -d 0 -p ack -e 40 -c 0 -i 83 -a 0 -x {3.0 0.0 35 ------- null}
- -t 0.610213333333334 -s 3 -d 0 -p ack -e 40 -c 0 -i 83 -a 0 -x {3.0 0.0 35 ------- null}
h -t 0.610213333333334 -s 3 -d 0 -p ack -e 40 -c 0 -i 83 -a 0 -x {3.0 0.0 -1 ------- null}
r -t 0.61288 -s 0 -d 3 -p tcp -e 1000 -c 0 -i 73 -a 0 -x {0.0 3.0 36 ------- null}
+ -t 0.61288 -s 3 -d 0 -p ack -e 40 -c 0 -i 84 -a 0 -x {3.0 0.0 36 ------- null}
- -t 0.61288 -s 3 -d 0 -p ack -e 40 -c 0 -i 84 -a 0 -x {3.0 0.0 36 ------- null}
h -t 0.61288 -s 3 -d 0 -p ack -e 40 -c 0 -i 84 -a 0 -x {3.0 0.0 -1 ------- null}