V -t * -v 1.0a5 -a 0
A -t * -n 1 -p 0 -o 0xffffffff -c 31 -a 1
A -t * -h 1 -m 2147483647 -s 0
n -t * -a 0 -s 0 -S UP -v circle -c black -i black
n -t * -a 1 -s 1 -S UP -v circle -c black -i black
n -t * -a 2 -s 2 -S UP -v circle -c black -i black
n -t * -a 3 -s 3 -S UP -v circle -c black -i black
n -t * -a 4 -s 4 -S UP -v circle -c black -i black
n -t * -a 5 -s 5 -S UP -v circle -c black -i black
n -t * -a 6 -s 6 -S UP -v circle -c black -i black
n -t * -a 7 -s 7 -S UP -v circle -c black -i black
n -t * -a 8 -s 8 -S UP -v circle -c black -i black
n -t * -a 9 -s 9 -S UP -v circle -c black -i black
n -t * -a 10 -s 10 -S UP -v circle -c black -i black
n -t * -a 11 -s 11 -S UP -v circle -c black -i black
n -t * -a 12 -s 12 -S UP -v circle -c black -i black
n -t * -a 13 -s 13 -S UP -v circle -c black -i black
n -t * -a 14 -s 14 -S UP -v circle -c black -i black
X -t * -n 15 -r 10000000 -D 0.0000256 -o left
L -t * -s 15 -d 0 -o up
L -t * -s 15 -d 1 -o down
L -t * -s 15 -d 2 -o up
L -t * -s 15 -d 3 -o down
L -t * -s 15 -d 4 -o up
L -t * -s 15 -d 5 -o down
L -t * -s 15 -d 6 -o up
L -t * -s 15 -d 7 -o down
L -t * -s 15 -d 8 -o up
L -t * -s 15 -d 9 -o down
L -t * -s 15 -d 10 -o up
L -t * -s 15 -d 11 -o down
L -t * -s 15 -d 12 -o up
L -t * -s 15 -d 13 -o down
L -t * -s 15 -d 14 -o up
h -t 0.2 -s 1 -d 15 -p cbr -e 1024 -c 0 -i 0 -a 0 -x {1.0 0.0 0 ------- null}
h -t 0.2 -s 2 -d 15 -p cbr -e 1024 -c 0 -i 1 -a 0 -x {2.0 0.1 0 ------- null}
h -t 0.2 -s 3 -d 15 -p cbr -e 1024 -c 0 -i 2 -a 0 -x {3.0 0.2 0 ------- null}
h -t 0.2 -s 4 -d 15 -p cbr -e 1024 -c 0 -i 3 -a 0 -x {4.0 0.3 0 ------- null}
h -t 0.2 -s 5 -d 15 -p cbr -e 1024 -c 0 -i 4 -a 0 -x {5.0 0.4 0 ------- null}
h -t 0.2 -s 6 -d 15 -p cbr -e 1024 -c 0 -i 5 -a 0 -x {6.0 0.5 0 ------- null}
h -t 0.2 -s 7 -d 15 -p cbr -e 1024 -c 0 -i 6 -a 0 -x {7.0 0.6 0 ------- null}
h -t 0.2 -s 8 -d 15 -p cbr -e 1024 -c 0 -i 7 -a 0 -x {8.0 0.7 0 ------- null}
h -t 0.2 -s 9 -d 15 -p cbr -e 1024 -c 0 -i 8 -a 0 -x {9.0 0.8 0 ------- null}
h -t 0.2 -s 10 -d 15 -p cbr -e 1024 -c 0 -i 9 -a 0 -x {10.0 0.9 0 ------- null}
h -t 0.2 -s 11 -d 15 -p cbr -e 1024 -c 0 -i 10 -a 0 -x {11.0 0.10 0 ------- null}
h -t 0.2 -s 12 -d 15 -p cbr -e 1024 -c 0 -i 11 -a 0 -x {12.0 0.11 0 ------- null}
h -t 0.2 -s 13 -d 15 -p cbr -e 1024 -c 0 -i 12 -a 0 -x {13.0 0.12 0 ------- null}
h -t 0.2 -s 14 -d 15 -p cbr -e 1024 -c 0 -i 13 -a 0 -x {14.0 0.13 0 ------- null}
+ -t 0.2000256 -s 1 -d 15 -p cbr -e 1024 -c 0 -i 0 -a 0 -x {1.0 0.0 0 ------- null}
- -t 0.2000256 -s 1 -d 15 -p cbr -e 1024 -c 0 -i 0 -a 0 -x {1.0 0.0 0 ------- null}
h -t 0.2000256 -s 1 -d 15 -p cbr -e 1024 -c 0 -i 0 -a 0 -x {1.0 0.0 -1 ------- null}
+ -t 0.2000256 -s 2 -d 15 -p cbr -e 1024 -c 0 -i 1 -a 0 -x {2.0 0.1 0 ------- null}
- -t 0.2000256 -s 2 -d 15 -p cbr -e 1024 -c 0 -i 1 -a 0 -x {2.0 0.1 0 ------- null}
h -t 0.2000256 -s 2 -d 15 -p cbr -e 1024 -c 0 -i 1 -a 0 -x {2.0 0.1 -1 ------- null}
+ -t 0.2000256 -s 3 -d 15 -p cbr -e 1024 -c 0 -i 2 -a 0 -x {3.0 0.2 0 ------- null}
- -t 0.2000256 -s 3 -d 15 -p cbr -e 1024 -c 0 -i 2 -a 0 -x {3.0 0.2 0 ------- null}
h -t 0.2000256 -s 3 -d 15 -p cbr -e 1024 -c 0 -i 2 -a 0 -x {3.0 0.2 -1 ------- null}
+ -t 0.2000256 -s 4 -d 15 -p cbr -e 1024 -c 0 -i 3 -a 0 -x {4.0 0.3 0 ------- null}
- -t 0.2000256 -s 4 -d 15 -p cbr -e 1024 -c 0 -i 3 -a 0 -x {4.0 0.3 0 ------- null}
h -t 0.2000256 -s 4 -d 15 -p cbr -e 1024 -c 0 -i 3 -a 0 -x {4.0 0.3 -1 ------- null}
+ -t 0.2000256 -s 5 -d 15 -p cbr -e 1024 -c 0 -i 4 -a 0 -x {5.0 0.4 0 ------- null}
- -t 0.2000256 -s 5 -d 15 -p cbr -e 1024 -c 0 -i 4 -a 0 -x {5.0 0.4 0 ------- null}
h -t 0.2000256 -s 5 -d 15 -p cbr -e 1024 -c 0 -i 4 -a 0 -x {5.0 0.4 -1 ------- null}
+ -t 0.2000256 -s 6 -d 15 -p cbr -e 1024 -c 0 -i 5 -a 0 -x {6.0 0.5 0 ------- null}
- -t 0.2000256 -s 6 -d 15 -p cbr -e 1024 -c 0 -i 5 -a 0 -x {6.0 0.5 0 ------- null}
h -t 0.2000256 -s 6 -d 15 -p cbr -e 1024 -c 0 -i 5 -a 0 -x {6.0 0.5 -1 ------- null}
+ -t 0.2000256 -s 7 -d 15 -p cbr -e 1024 -c 0 -i 6 -a 0 -x {7.0 0.6 0 ------- null}
- -t 0.2000256 -s 7 -d 15 -p cbr -e 1024 -c 0 -i 6 -a 0 -x {7.0 0.6 0 ------- null}
h -t 0.2000256 -s 7 -d 15 -p cbr -e 1024 -c 0 -i 6 -a 0 -x {7.0 0.6 -1 ------- null}
+ -t 0.2000256 -s 8 -d 15 -p cbr -e 1024 -c 0 -i 7 -a 0 -x {8.0 0.7 0 ------- null}
- -t 0.2000256 -s 8 -d 15 -p cbr -e 1024 -c 0 -i 7 -a 0 -x {8.0 0.7 0 ------- null}
h -t 0.2000256 -s 8 -d 15 -p cbr -e 1024 -c 0 -i 7 -a 0 -x {8.0 0.7 -1 ------- null}
+ -t 0.2000256 -s 9 -d 15 -p cbr -e 1024 -c 0 -i 8 -a 0 -x {9.0 0.8 0 ------- null}
- -t 0.2000256 -s 9 -d 15 -p cbr -e 1024 -c 0 -i 8 -a 0 -x {9.0 0.8 0 ------- null}
h -t 0.2000256 -s 9 -d 15 -p cbr -e 1024 -c 0 -i 8 -a 0 -x {9.0 0.8 -1 ------- null}
+ -t 0.2000256 -s 10 -d 15 -p cbr -e 1024 -c 0 -i 9 -a 0 -x {10.0 0.9 0 ------- null}
- -t 0.2000256 -s 10 -d 15 -p cbr -e 1024 -c 0 -i 9 -a 0 -x {10.0 0.9 0 ------- null}
h -t 0.2000256 -s 10 -d 15 -p cbr -e 1024 -c 0 -i 9 -a 0 -x {10.0 0.9 -1 ------- null}
+ -t 0.2000256 -s 11 -d 15 -p cbr -e 1024 -c 0 -i 10 -a 0 -x {11.0 0.10 0 ------- null}
- -t 0.2000256 -s 11 -d 15 -p cbr -e 1024 -c 0 -i 10 -a 0 -x {11.0 0.10 0 ------- null}
h -t 0.2000256 -s 11 -d 15 -p cbr -e 1024 -c 0 -i 10 -a 0 -x {11.0 0.10 -1 ------- null}
+ -t 0.2000256 -s 12 -d 15 -p cbr -e 1024 -c 0 -i 11 -a 0 -x {12.0 0.11 0 ------- null}
- -t 0.2000256 -s 12 -d 15 -p cbr -e 1024 -c 0 -i 11 -a 0 -x {12.0 0.11 0 ------- null}
h -t 0.2000256 -s 12 -d 15 -p cbr -e 1024 -c 0 -i 11 -a 0 -x {12.0 0.11 -1 ------- null}
+ -t 0.2000256 -s 13 -d 15 -p cbr -e 1024 -c 0 -i 12 -a 0 -x {13.0 0.12 0 ------- null}
- -t 0.2000256 -s 13 -d 15 -p cbr -e 1024 -c 0 -i 12 -a 0 -x {13.0 0.12 0 ------- null}
h -t 0.2000256 -s 13 -d 15 -p cbr -e 1024 -c 0 -i 12 -a 0 -x {13.0 0.12 -1 ------- null}
+ -t 0.2000256 -s 14 -d 15 -p cbr -e 1024 -c 0 -i 13 -a 0 -x {14.0 0.13 0 ------- null}
- -t 0.2000256 -s 14 -d 15 -p cbr -e 1024 -c 0 -i 13 -a 0 -x {14.0 0.13 0 ------- null}
h -t 0.2000256 -s 14 -d 15 -p cbr -e 1024 -c 0 -i 13 -a 0 -x {14.0 0.13 -1 ------- null}
r -t 0.2009192 -s 15 -d 0 -p cbr -e 1024 -c 0 -i 8 -a 0 -x {9.0 0.8 0 ------- null}
r -t 0.20178 -s 15 -d 0 -p cbr -e 1024 -c 0 -i 6 -a 0 -x {7.0 0.6 0 ------- null}
h -t 0.202049390908309 -s 1 -d 15 -p cbr -e 1024 -c 0 -i 14 -a 0 -x {1.0 0.0 1 ------- null}
+ -t 0.202074990908309 -s 1 -d 15 -p cbr -e 1024 -c 0 -i 14 -a 0 -x {1.0 0.0 1 ------- null}
h -t 0.202106182290034 -s 3 -d 15 -p cbr -e 1024 -c 0 -i 15 -a 0 -x {3.0 0.2 1 ------- null}
+ -t 0.202131782290034 -s 3 -d 15 -p cbr -e 1024 -c 0 -i 15 -a 0 -x {3.0 0.2 1 ------- null}
h -t 0.202223286508466 -s 14 -d 15 -p cbr -e 1024 -c 0 -i 16 -a 0 -x {14.0 0.13 1 ------- null}
+ -t 0.202248886508466 -s 14 -d 15 -p cbr -e 1024 -c 0 -i 16 -a 0 -x {14.0 0.13 1 ------- null}
h -t 0.202408950461702 -s 4 -d 15 -p cbr -e 1024 -c 0 -i 17 -a 0 -x {4.0 0.3 1 ------- null}
+ -t 0.202434550461702 -s 4 -d 15 -p cbr -e 1024 -c 0 -i 17 -a 0 -x {4.0 0.3 1 ------- null}
r -t 0.2026408 -s 15 -d 0 -p cbr -e 1024 -c 0 -i 11 -a 0 -x {12.0 0.11 0 ------- null}
h -t 0.20272033958544 -s 13 -d 15 -p cbr -e 1024 -c 0 -i 18 -a 0 -x {13.0 0.12 1 ------- null}
+ -t 0.20274593958544 -s 13 -d 15 -p cbr -e 1024 -c 0 -i 18 -a 0 -x {13.0 0.12 1 ------- null}
h -t 0.203008928775594 -s 9 -d 15 -p cbr -e 1024 -c 0 -i 19 -a 0 -x {9.0 0.8 1 ------- null}
+ -t 0.203034528775594 -s 9 -d 15 -p cbr -e 1024 -c 0 -i 19 -a 0 -x {9.0 0.8 1 ------- null}
- -t 0.203034528775594 -s 9 -d 15 -p cbr -e 1024 -c 0 -i 19 -a 0 -x {9.0 0.8 1 ------- null}
h -t 0.203034528775594 -s 9 -d 15 -p cbr -e 1024 -c 0 -i 19 -a 0 -x {9.0 0.8 -1 ------- null}
h -t 0.2033139878209 -s 11 -d 15 -p cbr -e 1024 -c 0 -i 20 -a 0 -x {11.0 0.10 1 ------- null}
h -t 0.203329891416641 -s 7 -d 15 -p cbr -e 1024 -c 0 -i 21 -a 0 -x {7.0 0.6 1 ------- null}
+ -t 0.2033395878209 -s 11 -d 15 -p cbr -e 1024 -c 0 -i 20 -a 0 -x {11.0 0.10 1 ------- null}
+ -t 0.203355491416641 -s 7 -d 15 -p cbr -e 1024 -c 0 -i 21 -a 0 -x {7.0 0.6 1 ------- null}
- -t 0.203355491416641 -s 7 -d 15 -p cbr -e 1024 -c 0 -i 21 -a 0 -x {7.0 0.6 1 ------- null}
h -t 0.203355491416641 -s 7 -d 15 -p cbr -e 1024 -c 0 -i 21 -a 0 -x {7.0 0.6 -1 ------- null}
- -t 0.203584 -s 3 -d 15 -p cbr -e 1024 -c 0 -i 15 -a 0 -x {3.0 0.2 1 ------- null}
h -t 0.203584 -s 3 -d 15 -p cbr -e 1024 -c 0 -i 15 -a 0 -x {3.0 0.2 -1 ------- null}
r -t 0.203604 -s 15 -d 0 -p cbr -e 1024 -c 0 -i 2 -a 0 -x {3.0 0.2 0 ------- null}
h -t 0.203855046172871 -s 5 -d 15 -p cbr -e 1024 -c 0 -i 22 -a 0 -x {5.0 0.4 1 ------- null}
+ -t 0.203880646172871 -s 5 -d 15 -p cbr -e 1024 -c 0 -i 22 -a 0 -x {5.0 0.4 1 ------- null}
h -t 0.204324887412666 -s 2 -d 15 -p cbr -e 1024 -c 0 -i 23 -a 0 -x {2.0 0.1 1 ------- null}
+ -t 0.204350487412666 -s 2 -d 15 -p cbr -e 1024 -c 0 -i 23 -a 0 -x {2.0 0.1 1 ------- null}
h -t 0.20466479162682 -s 10 -d 15 -p cbr -e 1024 -c 0 -i 24 -a 0 -x {10.0 0.9 1 ------- null}
+ -t 0.20469039162682 -s 10 -d 15 -p cbr -e 1024 -c 0 -i 24 -a 0 -x {10.0 0.9 1 ------- null}
r -t 0.2047504 -s 15 -d 0 -p cbr -e 1024 -c 0 -i 21 -a 0 -x {7.0 0.6 1 ------- null}
h -t 0.20486012449055 -s 1 -d 15 -p cbr -e 1024 -c 0 -i 25 -a 0 -x {1.0 0.0 2 ------- null}
+ -t 0.20488572449055 -s 1 -d 15 -p cbr -e 1024 -c 0 -i 25 -a 0 -x {1.0 0.0 2 ------- null}
h -t 0.205129607382286 -s 13 -d 15 -p cbr -e 1024 -c 0 -i 26 -a 0 -x {13.0 0.12 2 ------- null}
+ -t 0.205155207382286 -s 13 -d 15 -p cbr -e 1024 -c 0 -i 26 -a 0 -x {13.0 0.12 2 ------- null}
h -t 0.205321340737557 -s 6 -d 15 -p cbr -e 1024 -c 0 -i 27 -a 0 -x {6.0 0.5 1 ------- null}
+ -t 0.205346940737557 -s 6 -d 15 -p cbr -e 1024 -c 0 -i 27 -a 0 -x {6.0 0.5 1 ------- null}
h -t 0.205392285906627 -s 8 -d 15 -p cbr -e 1024 -c 0 -i 28 -a 0 -x {8.0 0.7 1 ------- null}
+ -t 0.205417885906627 -s 8 -d 15 -p cbr -e 1024 -c 0 -i 28 -a 0 -x {8.0 0.7 1 ------- null}
h -t 0.205473581207233 -s 12 -d 15 -p cbr -e 1024 -c 0 -i 29 -a 0 -x {12.0 0.11 1 ------- null}
+ -t 0.205499181207233 -s 12 -d 15 -p cbr -e 1024 -c 0 -i 29 -a 0 -x {12.0 0.11 1 ------- null}
- -t 0.205499181207233 -s 12 -d 15 -p cbr -e 1024 -c 0 -i 29 -a 0 -x {12.0 0.11 1 ------- null}
h -t 0.205499181207233 -s 12 -d 15 -p cbr -e 1024 -c 0 -i 29 -a 0 -x {12.0 0.11 -1 ------- null}
r -t 0.2059184 -s 15 -d 0 -p cbr -e 1024 -c 0 -i 19 -a 0 -x {9.0 0.8 1 ------- null}
r -t 0.2068304 -s 15 -d 0 -p cbr -e 1024 -c 0 -i 29 -a 0 -x {12.0 0.11 1 ------- null}
h -t 0.206847109114365 -s 10 -d 15 -p cbr -e 1024 -c 0 -i 30 -a 0 -x {10.0 0.9 2 ------- null}
+ -t 0.206872709114365 -s 10 -d 15 -p cbr -e 1024 -c 0 -i 30 -a 0 -x {10.0 0.9 2 ------- null}
h -t 0.207038956580588 -s 1 -d 15 -p cbr -e 1024 -c 0 -i 31 -a 0 -x {1.0 0.0 3 ------- null}
+ -t 0.207064556580588 -s 1 -d 15 -p cbr -e 1024 -c 0 -i 31 -a 0 -x {1.0 0.0 3 ------- null}
h -t 0.20736948946212 -s 3 -d 15 -p cbr -e 1024 -c 0 -i 32 -a 0 -x {3.0 0.2 2 ------- null}
+ -t 0.20739508946212 -s 3 -d 15 -p cbr -e 1024 -c 0 -i 32 -a 0 -x {3.0 0.2 2 ------- null}
h -t 0.207621912200976 -s 4 -d 15 -p cbr -e 1024 -c 0 -i 33 -a 0 -x {4.0 0.3 2 ------- null}
+ -t 0.207647512200976 -s 4 -d 15 -p cbr -e 1024 -c 0 -i 33 -a 0 -x {4.0 0.3 2 ------- null}
- -t 0.2078952 -s 13 -d 15 -p cbr -e 1024 -c 0 -i 18 -a 0 -x {13.0 0.12 1 ------- null}
h -t 0.2078952 -s 13 -d 15 -p cbr -e 1024 -c 0 -i 18 -a 0 -x {13.0 0.12 -1 ------- null}
r -t 0.2079152 -s 15 -d 0 -p cbr -e 1024 -c 0 -i 12 -a 0 -x {13.0 0.12 0 ------- null}
h -t 0.20814944561943 -s 14 -d 15 -p cbr -e 1024 -c 0 -i 34 -a 0 -x {14.0 0.13 2 ------- null}
+ -t 0.20817504561943 -s 14 -d 15 -p cbr -e 1024 -c 0 -i 34 -a 0 -x {14.0 0.13 2 ------- null}
h -t 0.20835995051339 -s 7 -d 15 -p cbr -e 1024 -c 0 -i 35 -a 0 -x {7.0 0.6 2 ------- null}
h -t 0.20837197276987 -s 12 -d 15 -p cbr -e 1024 -c 0 -i 36 -a 0 -x {12.0 0.11 2 ------- null}
+ -t 0.20838555051339 -s 7 -d 15 -p cbr -e 1024 -c 0 -i 35 -a 0 -x {7.0 0.6 2 ------- null}
- -t 0.20838555051339 -s 7 -d 15 -p cbr -e 1024 -c 0 -i 35 -a 0 -x {7.0 0.6 2 ------- null}
h -t 0.20838555051339 -s 7 -d 15 -p cbr -e 1024 -c 0 -i 35 -a 0 -x {7.0 0.6 -1 ------- null}
h -t 0.208392711808388 -s 9 -d 15 -p cbr -e 1024 -c 0 -i 37 -a 0 -x {9.0 0.8 2 ------- null}
+ -t 0.20839757276987 -s 12 -d 15 -p cbr -e 1024 -c 0 -i 36 -a 0 -x {12.0 0.11 2 ------- null}
- -t 0.20839757276987 -s 12 -d 15 -p cbr -e 1024 -c 0 -i 36 -a 0 -x {12.0 0.11 2 ------- null}
h -t 0.20839757276987 -s 12 -d 15 -p cbr -e 1024 -c 0 -i 36 -a 0 -x {12.0 0.11 -1 ------- null}
+ -t 0.208418311808388 -s 9 -d 15 -p cbr -e 1024 -c 0 -i 37 -a 0 -x {9.0 0.8 2 ------- null}
- -t 0.208418311808388 -s 9 -d 15 -p cbr -e 1024 -c 0 -i 37 -a 0 -x {9.0 0.8 2 ------- null}
h -t 0.208418311808388 -s 9 -d 15 -p cbr -e 1024 -c 0 -i 37 -a 0 -x {9.0 0.8 -1 ------- null}
h -t 0.208752591616123 -s 5 -d 15 -p cbr -e 1024 -c 0 -i 38 -a 0 -x {5.0 0.4 2 ------- null}
- -t 0.208756 -s 13 -d 15 -p cbr -e 1024 -c 0 -i 26 -a 0 -x {13.0 0.12 2 ------- null}
h -t 0.208756 -s 13 -d 15 -p cbr -e 1024 -c 0 -i 26 -a 0 -x {13.0 0.12 -1 ------- null}
r -t 0.208776 -s 15 -d 0 -p cbr -e 1024 -c 0 -i 18 -a 0 -x {13.0 0.12 1 ------- null}
+ -t 0.208778191616123 -s 5 -d 15 -p cbr -e 1024 -c 0 -i 38 -a 0 -x {5.0 0.4 2 ------- null}
h -t 0.209060051766473 -s 11 -d 15 -p cbr -e 1024 -c 0 -i 39 -a 0 -x {11.0 0.10 2 ------- null}
+ -t 0.209085651766473 -s 11 -d 15 -p cbr -e 1024 -c 0 -i 39 -a 0 -x {11.0 0.10 2 ------- null}
h -t 0.209288652816476 -s 8 -d 15 -p cbr -e 1024 -c 0 -i 40 -a 0 -x {8.0 0.7 2 ------- null}
+ -t 0.209314252816476 -s 8 -d 15 -p cbr -e 1024 -c 0 -i 40 -a 0 -x {8.0 0.7 2 ------- null}
h -t 0.209502319955387 -s 6 -d 15 -p cbr -e 1024 -c 0 -i 41 -a 0 -x {6.0 0.5 2 ------- null}
+ -t 0.209527919955387 -s 6 -d 15 -p cbr -e 1024 -c 0 -i 41 -a 0 -x {6.0 0.5 2 ------- null}
r -t 0.2097048 -s 15 -d 0 -p cbr -e 1024 -c 0 -i 35 -a 0 -x {7.0 0.6 2 ------- null}
h -t 0.210066761648371 -s 3 -d 15 -p cbr -e 1024 -c 0 -i 42 -a 0 -x {3.0 0.2 3 ------- null}
+ -t 0.210092361648371 -s 3 -d 15 -p cbr -e 1024 -c 0 -i 42 -a 0 -x {3.0 0.2 3 ------- null}
h -t 0.210108190382296 -s 2 -d 15 -p cbr -e 1024 -c 0 -i 43 -a 0 -x {2.0 0.1 2 ------- null}
+ -t 0.210133790382296 -s 2 -d 15 -p cbr -e 1024 -c 0 -i 43 -a 0 -x {2.0 0.1 2 ------- null}
h -t 0.210411925187808 -s 13 -d 15 -p cbr -e 1024 -c 0 -i 44 -a 0 -x {13.0 0.12 3 ------- null}
+ -t 0.210437525187808 -s 13 -d 15 -p cbr -e 1024 -c 0 -i 44 -a 0 -x {13.0 0.12 3 ------- null}
r -t 0.2106168 -s 15 -d 0 -p cbr -e 1024 -c 0 -i 36 -a 0 -x {12.0 0.11 2 ------- null}
h -t 0.210634686795275 -s 4 -d 15 -p cbr -e 1024 -c 0 -i 45 -a 0 -x {4.0 0.3 3 ------- null}
+ -t 0.210660286795275 -s 4 -d 15 -p cbr -e 1024 -c 0 -i 45 -a 0 -x {4.0 0.3 3 ------- null}
h -t 0.210681138478662 -s 9 -d 15 -p cbr -e 1024 -c 0 -i 46 -a 0 -x {9.0 0.8 3 ------- null}
+ -t 0.210706738478662 -s 9 -d 15 -p cbr -e 1024 -c 0 -i 46 -a 0 -x {9.0 0.8 3 ------- null}
h -t 0.210880743805445 -s 10 -d 15 -p cbr -e 1024 -c 0 -i 47 -a 0 -x {10.0 0.9 3 ------- null}
+ -t 0.210906343805445 -s 10 -d 15 -p cbr -e 1024 -c 0 -i 47 -a 0 -x {10.0 0.9 3 ------- null}
h -t 0.211337049044332 -s 7 -d 15 -p cbr -e 1024 -c 0 -i 48 -a 0 -x {7.0 0.6 3 ------- null}
+ -t 0.211362649044332 -s 7 -d 15 -p cbr -e 1024 -c 0 -i 48 -a 0 -x {7.0 0.6 3 ------- null}
- -t 0.211362649044332 -s 7 -d 15 -p cbr -e 1024 -c 0 -i 48 -a 0 -x {7.0 0.6 3 ------- null}
h -t 0.211362649044332 -s 7 -d 15 -p cbr -e 1024 -c 0 -i 48 -a 0 -x {7.0 0.6 -1 ------- null}
- -t 0.211716 -s 1 -d 15 -p cbr -e 1024 -c 0 -i 14 -a 0 -x {1.0 0.0 1 ------- null}
h -t 0.211716 -s 1 -d 15 -p cbr -e 1024 -c 0 -i 14 -a 0 -x {1.0 0.0 -1 ------- null}
r -t 0.211736 -s 15 -d 0 -p cbr -e 1024 -c 0 -i 0 -a 0 -x {1.0 0.0 0 ------- null}
h -t 0.212193073300533 -s 5 -d 15 -p cbr -e 1024 -c 0 -i 49 -a 0 -x {5.0 0.4 3 ------- null}
+ -t 0.212218673300533 -s 5 -d 15 -p cbr -e 1024 -c 0 -i 49 -a 0 -x {5.0 0.4 3 ------- null}
- -t 0.2127264 -s 13 -d 15 -p cbr -e 1024 -c 0 -i 44 -a 0 -x {13.0 0.12 3 ------- null}
h -t 0.2127264 -s 13 -d 15 -p cbr -e 1024 -c 0 -i 44 -a 0 -x {13.0 0.12 -1 ------- null}
r -t 0.2127464 -s 15 -d 0 -p cbr -e 1024 -c 0 -i 26 -a 0 -x {13.0 0.12 2 ------- null}
h -t 0.212760252922041 -s 1 -d 15 -p cbr -e 1024 -c 0 -i 50 -a 0 -x {1.0 0.0 4 ------- null}
+ -t 0.212785852922041 -s 1 -d 15 -p cbr -e 1024 -c 0 -i 50 -a 0 -x {1.0 0.0 4 ------- null}
h -t 0.213090074289065 -s 14 -d 15 -p cbr -e 1024 -c 0 -i 51 -a 0 -x {14.0 0.13 3 ------- null}
+ -t 0.213115674289065 -s 14 -d 15 -p cbr -e 1024 -c 0 -i 51 -a 0 -x {14.0 0.13 3 ------- null}
h -t 0.213392100324695 -s 9 -d 15 -p cbr -e 1024 -c 0 -i 52 -a 0 -x {9.0 0.8 4 ------- null}
+ -t 0.213417700324695 -s 9 -d 15 -p cbr -e 1024 -c 0 -i 52 -a 0 -x {9.0 0.8 4 ------- null}
h -t 0.213536603355795 -s 13 -d 15 -p cbr -e 1024 -c 0 -i 53 -a 0 -x {13.0 0.12 4 ------- null}
h -t 0.213549441907938 -s 8 -d 15 -p cbr -e 1024 -c 0 -i 54 -a 0 -x {8.0 0.7 3 ------- null}
+ -t 0.213562203355795 -s 13 -d 15 -p cbr -e 1024 -c 0 -i 53 -a 0 -x {13.0 0.12 4 ------- null}
+ -t 0.213575041907938 -s 8 -d 15 -p cbr -e 1024 -c 0 -i 54 -a 0 -x {8.0 0.7 3 ------- null}
r -t 0.2136032 -s 15 -d 0 -p cbr -e 1024 -c 0 -i 48 -a 0 -x {7.0 0.6 3 ------- null}
h -t 0.213743124225514 -s 6 -d 15 -p cbr -e 1024 -c 0 -i 55 -a 0 -x {6.0 0.5 3 ------- null}
+ -t 0.213768724225514 -s 6 -d 15 -p cbr -e 1024 -c 0 -i 55 -a 0 -x {6.0 0.5 3 ------- null}
h -t 0.21382064115508 -s 12 -d 15 -p cbr -e 1024 -c 0 -i 56 -a 0 -x {12.0 0.11 3 ------- null}
+ -t 0.21384624115508 -s 12 -d 15 -p cbr -e 1024 -c 0 -i 56 -a 0 -x {12.0 0.11 3 ------- null}
- -t 0.21384624115508 -s 12 -d 15 -p cbr -e 1024 -c 0 -i 56 -a 0 -x {12.0 0.11 3 ------- null}
h -t 0.21384624115508 -s 12 -d 15 -p cbr -e 1024 -c 0 -i 56 -a 0 -x {12.0 0.11 -1 ------- null}
h -t 0.214013153207403 -s 10 -d 15 -p cbr -e 1024 -c 0 -i 57 -a 0 -x {10.0 0.9 4 ------- null}
+ -t 0.214038753207403 -s 10 -d 15 -p cbr -e 1024 -c 0 -i 57 -a 0 -x {10.0 0.9 4 ------- null}
- -t 0.214444 -s 13 -d 15 -p cbr -e 1024 -c 0 -i 53 -a 0 -x {13.0 0.12 4 ------- null}
h -t 0.214444 -s 13 -d 15 -p cbr -e 1024 -c 0 -i 53 -a 0 -x {13.0 0.12 -1 ------- null}
h -t 0.214461913564104 -s 5 -d 15 -p cbr -e 1024 -c 0 -i 58 -a 0 -x {5.0 0.4 4 ------- null}
r -t 0.214464 -s 15 -d 0 -p cbr -e 1024 -c 0 -i 44 -a 0 -x {13.0 0.12 3 ------- null}
+ -t 0.214487513564104 -s 5 -d 15 -p cbr -e 1024 -c 0 -i 58 -a 0 -x {5.0 0.4 4 ------- null}
h -t 0.214935947466341 -s 7 -d 15 -p cbr -e 1024 -c 0 -i 59 -a 0 -x {7.0 0.6 4 ------- null}
+ -t 0.214961547466341 -s 7 -d 15 -p cbr -e 1024 -c 0 -i 59 -a 0 -x {7.0 0.6 4 ------- null}
- -t 0.214961547466341 -s 7 -d 15 -p cbr -e 1024 -c 0 -i 59 -a 0 -x {7.0 0.6 4 ------- null}
h -t 0.214961547466341 -s 7 -d 15 -p cbr -e 1024 -c 0 -i 59 -a 0 -x {7.0 0.6 -1 ------- null}
h -t 0.214978870367666 -s 11 -d 15 -p cbr -e 1024 -c 0 -i 60 -a 0 -x {11.0 0.10 3 ------- null}
+ -t 0.215004470367666 -s 11 -d 15 -p cbr -e 1024 -c 0 -i 60 -a 0 -x {11.0 0.10 3 ------- null}
h -t 0.215145399587729 -s 2 -d 15 -p cbr -e 1024 -c 0 -i 61 -a 0 -x {2.0 0.1 3 ------- null}
+ -t 0.215170999587729 -s 2 -d 15 -p cbr -e 1024 -c 0 -i 61 -a 0 -x {2.0 0.1 3 ------- null}
h -t 0.215374809351685 -s 4 -d 15 -p cbr -e 1024 -c 0 -i 62 -a 0 -x {4.0 0.3 4 ------- null}
+ -t 0.215400409351685 -s 4 -d 15 -p cbr -e 1024 -c 0 -i 62 -a 0 -x {4.0 0.3 4 ------- null}
r -t 0.21544 -s 15 -d 0 -p cbr -e 1024 -c 0 -i 53 -a 0 -x {13.0 0.12 4 ------- null}
h -t 0.215723254007765 -s 3 -d 15 -p cbr -e 1024 -c 0 -i 63 -a 0 -x {3.0 0.2 4 ------- null}
+ -t 0.215748854007765 -s 3 -d 15 -p cbr -e 1024 -c 0 -i 63 -a 0 -x {3.0 0.2 4 ------- null}
h -t 0.215805575644137 -s 6 -d 15 -p cbr -e 1024 -c 0 -i 64 -a 0 -x {6.0 0.5 4 ------- null}
+ -t 0.215831175644137 -s 6 -d 15 -p cbr -e 1024 -c 0 -i 64 -a 0 -x {6.0 0.5 4 ------- null}
h -t 0.216116434260762 -s 13 -d 15 -p cbr -e 1024 -c 0 -i 65 -a 0 -x {13.0 0.12 5 ------- null}
+ -t 0.216142034260762 -s 13 -d 15 -p cbr -e 1024 -c 0 -i 65 -a 0 -x {13.0 0.12 5 ------- null}
- -t 0.216142034260762 -s 13 -d 15 -p cbr -e 1024 -c 0 -i 65 -a 0 -x {13.0 0.12 5 ------- null}
h -t 0.216142034260762 -s 13 -d 15 -p cbr -e 1024 -c 0 -i 65 -a 0 -x {13.0 0.12 -1 ------- null}
r -t 0.2163008 -s 15 -d 0 -p cbr -e 1024 -c 0 -i 59 -a 0 -x {7.0 0.6 4 ------- null}
h -t 0.21637274482005 -s 10 -d 15 -p cbr -e 1024 -c 0 -i 66 -a 0 -x {10.0 0.9 5 ------- null}
+ -t 0.21639834482005 -s 10 -d 15 -p cbr -e 1024 -c 0 -i 66 -a 0 -x {10.0 0.9 5 ------- null}
h -t 0.216747067707479 -s 14 -d 15 -p cbr -e 1024 -c 0 -i 67 -a 0 -x {14.0 0.13 4 ------- null}
+ -t 0.216772667707479 -s 14 -d 15 -p cbr -e 1024 -c 0 -i 67 -a 0 -x {14.0 0.13 4 ------- null}
r -t 0.2171616 -s 15 -d 0 -p cbr -e 1024 -c 0 -i 65 -a 0 -x {13.0 0.12 5 ------- null}
h -t 0.217161747769828 -s 5 -d 15 -p cbr -e 1024 -c 0 -i 68 -a 0 -x {5.0 0.4 5 ------- null}
+ -t 0.217187347769828 -s 5 -d 15 -p cbr -e 1024 -c 0 -i 68 -a 0 -x {5.0 0.4 5 ------- null}
h -t 0.217666162941084 -s 9 -d 15 -p cbr -e 1024 -c 0 -i 69 -a 0 -x {9.0 0.8 5 ------- null}
+ -t 0.217691762941084 -s 9 -d 15 -p cbr -e 1024 -c 0 -i 69 -a 0 -x {9.0 0.8 5 ------- null}
h -t 0.217974073111292 -s 8 -d 15 -p cbr -e 1024 -c 0 -i 70 -a 0 -x {8.0 0.7 4 ------- null}
+ -t 0.217999673111292 -s 8 -d 15 -p cbr -e 1024 -c 0 -i 70 -a 0 -x {8.0 0.7 4 ------- null}
- -t 0.218116 -s 6 -d 15 -p cbr -e 1024 -c 0 -i 27 -a 0 -x {6.0 0.5 1 ------- null}
h -t 0.218116 -s 6 -d 15 -p cbr -e 1024 -c 0 -i 27 -a 0 -x {6.0 0.5 -1 ------- null}
r -t 0.218136 -s 15 -d 0 -p cbr -e 1024 -c 0 -i 5 -a 0 -x {6.0 0.5 0 ------- null}
h -t 0.21820811889041 -s 1 -d 15 -p cbr -e 1024 -c 0 -i 71 -a 0 -x {1.0 0.0 5 ------- null}
+ -t 0.21823371889041 -s 1 -d 15 -p cbr -e 1024 -c 0 -i 71 -a 0 -x {1.0 0.0 5 ------- null}
h -t 0.218684166863256 -s 4 -d 15 -p cbr -e 1024 -c 0 -i 72 -a 0 -x {4.0 0.3 5 ------- null}
+ -t 0.218709766863256 -s 4 -d 15 -p cbr -e 1024 -c 0 -i 72 -a 0 -x {4.0 0.3 5 ------- null}
h -t 0.218795855086782 -s 11 -d 15 -p cbr -e 1024 -c 0 -i 73 -a 0 -x {11.0 0.10 4 ------- null}
+ -t 0.218821455086782 -s 11 -d 15 -p cbr -e 1024 -c 0 -i 73 -a 0 -x {11.0 0.10 4 ------- null}
- -t 0.2189768 -s 6 -d 15 -p cbr -e 1024 -c 0 -i 41 -a 0 -x {6.0 0.5 2 ------- null}
h -t 0.2189768 -s 6 -d 15 -p cbr -e 1024 -c 0 -i 41 -a 0 -x {6.0 0.5 -1 ------- null}
r -t 0.2189968 -s 15 -d 0 -p cbr -e 1024 -c 0 -i 27 -a 0 -x {6.0 0.5 1 ------- null}
h -t 0.219119352205186 -s 12 -d 15 -p cbr -e 1024 -c 0 -i 74 -a 0 -x {12.0 0.11 4 ------- null}
+ -t 0.219144952205186 -s 12 -d 15 -p cbr -e 1024 -c 0 -i 74 -a 0 -x {12.0 0.11 4 ------- null}
h -t 0.219189965819827 -s 2 -d 15 -p cbr -e 1024 -c 0 -i 75 -a 0 -x {2.0 0.1 4 ------- null}
+ -t 0.219215565819827 -s 2 -d 15 -p cbr -e 1024 -c 0 -i 75 -a 0 -x {2.0 0.1 4 ------- null}
h -t 0.219300443666554 -s 6 -d 15 -p cbr -e 1024 -c 0 -i 76 -a 0 -x {6.0 0.5 5 ------- null}
+ -t 0.219326043666554 -s 6 -d 15 -p cbr -e 1024 -c 0 -i 76 -a 0 -x {6.0 0.5 5 ------- null}
h -t 0.21935529434384 -s 5 -d 15 -p cbr -e 1024 -c 0 -i 77 -a 0 -x {5.0 0.4 6 ------- null}
+ -t 0.21938089434384 -s 5 -d 15 -p cbr -e 1024 -c 0 -i 77 -a 0 -x {5.0 0.4 6 ------- null}
- -t 0.2198376 -s 6 -d 15 -p cbr -e 1024 -c 0 -i 55 -a 0 -x {6.0 0.5 3 ------- null}
h -t 0.2198376 -s 6 -d 15 -p cbr -e 1024 -c 0 -i 55 -a 0 -x {6.0 0.5 -1 ------- null}
r -t 0.2198576 -s 15 -d 0 -p cbr -e 1024 -c 0 -i 41 -a 0 -x {6.0 0.5 2 ------- null}
h -t 0.219868203781063 -s 7 -d 15 -p cbr -e 1024 -c 0 -i 78 -a 0 -x {7.0 0.6 5 ------- null}
+ -t 0.219893803781063 -s 7 -d 15 -p cbr -e 1024 -c 0 -i 78 -a 0 -x {7.0 0.6 5 ------- null}
- -t 0.219893803781063 -s 7 -d 15 -p cbr -e 1024 -c 0 -i 78 -a 0 -x {7.0 0.6 5 ------- null}
h -t 0.219893803781063 -s 7 -d 15 -p cbr -e 1024 -c 0 -i 78 -a 0 -x {7.0 0.6 -1 ------- null}
h -t 0.220120521999116 -s 13 -d 15 -p cbr -e 1024 -c 0 -i 79 -a 0 -x {13.0 0.12 6 ------- null}
+ -t 0.220146121999116 -s 13 -d 15 -p cbr -e 1024 -c 0 -i 79 -a 0 -x {13.0 0.12 6 ------- null}
- -t 0.220146121999116 -s 13 -d 15 -p cbr -e 1024 -c 0 -i 79 -a 0 -x {13.0 0.12 6 ------- null}
h -t 0.220146121999116 -s 13 -d 15 -p cbr -e 1024 -c 0 -i 79 -a 0 -x {13.0 0.12 -1 ------- null}
h -t 0.220489656323901 -s 10 -d 15 -p cbr -e 1024 -c 0 -i 80 -a 0 -x {10.0 0.9 6 ------- null}
+ -t 0.220515256323901 -s 10 -d 15 -p cbr -e 1024 -c 0 -i 80 -a 0 -x {10.0 0.9 6 ------- null}
h -t 0.220635241777309 -s 8 -d 15 -p cbr -e 1024 -c 0 -i 81 -a 0 -x {8.0 0.7 5 ------- null}
+ -t 0.220660841777309 -s 8 -d 15 -p cbr -e 1024 -c 0 -i 81 -a 0 -x {8.0 0.7 5 ------- null}
r -t 0.220753803781063 -s 15 -d 0 -p cbr -e 1024 -c 0 -i 78 -a 0 -x {7.0 0.6 5 ------- null}
h -t 0.220790262170558 -s 1 -d 15 -p cbr -e 1024 -c 0 -i 82 -a 0 -x {1.0 0.0 6 ------- null}
+ -t 0.220815862170558 -s 1 -d 15 -p cbr -e 1024 -c 0 -i 82 -a 0 -x {1.0 0.0 6 ------- null}
h -t 0.220958907836265 -s 4 -d 15 -p cbr -e 1024 -c 0 -i 83 -a 0 -x {4.0 0.3 6 ------- null}
+ -t 0.220984507836265 -s 4 -d 15 -p cbr -e 1024 -c 0 -i 83 -a 0 -x {4.0 0.3 6 ------- null}
h -t 0.221426788637237 -s 14 -d 15 -p cbr -e 1024 -c 0 -i 84 -a 0 -x {14.0 0.13 5 ------- null}
h -t 0.221450806141185 -s 3 -d 15 -p cbr -e 1024 -c 0 -i 85 -a 0 -x {3.0 0.2 5 ------- null}
+ -t 0.221452388637237 -s 14 -d 15 -p cbr -e 1024 -c 0 -i 84 -a 0 -x {14.0 0.13 5 ------- null}
+ -t 0.221476406141185 -s 3 -d 15 -p cbr -e 1024 -c 0 -i 85 -a 0 -x {3.0 0.2 5 ------- null}
r -t 0.221614603781063 -s 15 -d 0 -p cbr -e 1024 -c 0 -i 79 -a 0 -x {13.0 0.12 6 ------- null}
h -t 0.222366391836923 -s 9 -d 15 -p cbr -e 1024 -c 0 -i 86 -a 0 -x {9.0 0.8 6 ------- null}
+ -t 0.222391991836923 -s 9 -d 15 -p cbr -e 1024 -c 0 -i 86 -a 0 -x {9.0 0.8 6 ------- null}
- -t 0.222455403781063 -s 6 -d 15 -p cbr -e 1024 -c 0 -i 64 -a 0 -x {6.0 0.5 4 ------- null}
h -t 0.222455403781063 -s 6 -d 15 -p cbr -e 1024 -c 0 -i 64 -a 0 -x {6.0 0.5 -1 ------- null}
r -t 0.222475403781063 -s 15 -d 0 -p cbr -e 1024 -c 0 -i 55 -a 0 -x {6.0 0.5 3 ------- null}
h -t 0.222704304072335 -s 12 -d 15 -p cbr -e 1024 -c 0 -i 87 -a 0 -x {12.0 0.11 5 ------- null}
+ -t 0.222729904072335 -s 12 -d 15 -p cbr -e 1024 -c 0 -i 87 -a 0 -x {12.0 0.11 5 ------- null}
h -t 0.222769197316407 -s 2 -d 15 -p cbr -e 1024 -c 0 -i 88 -a 0 -x {2.0 0.1 5 ------- null}
+ -t 0.222794797316407 -s 2 -d 15 -p cbr -e 1024 -c 0 -i 88 -a 0 -x {2.0 0.1 5 ------- null}
h -t 0.222958996229064 -s 11 -d 15 -p cbr -e 1024 -c 0 -i 89 -a 0 -x {11.0 0.10 5 ------- null}
+ -t 0.222984596229064 -s 11 -d 15 -p cbr -e 1024 -c 0 -i 89 -a 0 -x {11.0 0.10 5 ------- null}
h -t 0.223155937621963 -s 5 -d 15 -p cbr -e 1024 -c 0 -i 90 -a 0 -x {5.0 0.4 7 ------- null}
+ -t 0.223181537621963 -s 5 -d 15 -p cbr -e 1024 -c 0 -i 90 -a 0 -x {5.0 0.4 7 ------- null}
- -t 0.223295403781063 -s 6 -d 15 -p cbr -e 1024 -c 0 -i 76 -a 0 -x {6.0 0.5 5 ------- null}
h -t 0.223295403781063 -s 6 -d 15 -p cbr -e 1024 -c 0 -i 76 -a 0 -x {6.0 0.5 -1 ------- null}
r -t 0.223315403781063 -s 15 -d 0 -p cbr -e 1024 -c 0 -i 64 -a 0 -x {6.0 0.5 4 ------- null}
h -t 0.223805590680006 -s 7 -d 15 -p cbr -e 1024 -c 0 -i 91 -a 0 -x {7.0 0.6 6 ------- null}
+ -t 0.223831190680006 -s 7 -d 15 -p cbr -e 1024 -c 0 -i 91 -a 0 -x {7.0 0.6 6 ------- null}
- -t 0.223831190680006 -s 7 -d 15 -p cbr -e 1024 -c 0 -i 91 -a 0 -x {7.0 0.6 6 ------- null}
h -t 0.223831190680006 -s 7 -d 15 -p cbr -e 1024 -c 0 -i 91 -a 0 -x {7.0 0.6 -1 ------- null}
h -t 0.224119472977464 -s 1 -d 15 -p cbr -e 1024 -c 0 -i 92 -a 0 -x {1.0 0.0 7 ------- null}
+ -t 0.224145072977464 -s 1 -d 15 -p cbr -e 1024 -c 0 -i 92 -a 0 -x {1.0 0.0 7 ------- null}
r -t 0.224155403781063 -s 15 -d 0 -p cbr -e 1024 -c 0 -i 76 -a 0 -x {6.0 0.5 5 ------- null}
h -t 0.224298857075621 -s 13 -d 15 -p cbr -e 1024 -c 0 -i 93 -a 0 -x {13.0 0.12 7 ------- null}
+ -t 0.224324457075621 -s 13 -d 15 -p cbr -e 1024 -c 0 -i 93 -a 0 -x {13.0 0.12 7 ------- null}
- -t 0.224324457075621 -s 13 -d 15 -p cbr -e 1024 -c 0 -i 93 -a 0 -x {13.0 0.12 7 ------- null}
h -t 0.224324457075621 -s 13 -d 15 -p cbr -e 1024 -c 0 -i 93 -a 0 -x {13.0 0.12 -1 ------- null}
h -t 0.224530797219948 -s 6 -d 15 -p cbr -e 1024 -c 0 -i 94 -a 0 -x {6.0 0.5 6 ------- null}
+ -t 0.224556397219948 -s 6 -d 15 -p cbr -e 1024 -c 0 -i 94 -a 0 -x {6.0 0.5 6 ------- null}
- -t 0.224556397219948 -s 6 -d 15 -p cbr -e 1024 -c 0 -i 94 -a 0 -x {6.0 0.5 6 ------- null}
h -t 0.224556397219948 -s 6 -d 15 -p cbr -e 1024 -c 0 -i 94 -a 0 -x {6.0 0.5 -1 ------- null}
r -t 0.225016203781063 -s 15 -d 0 -p cbr -e 1024 -c 0 -i 91 -a 0 -x {7.0 0.6 6 ------- null}
h -t 0.225061602316532 -s 8 -d 15 -p cbr -e 1024 -c 0 -i 95 -a 0 -x {8.0 0.7 6 ------- null}
+ -t 0.225087202316532 -s 8 -d 15 -p cbr -e 1024 -c 0 -i 95 -a 0 -x {8.0 0.7 6 ------- null}
h -t 0.225412303751439 -s 14 -d 15 -p cbr -e 1024 -c 0 -i 96 -a 0 -x {14.0 0.13 6 ------- null}
+ -t 0.225437903751439 -s 14 -d 15 -p cbr -e 1024 -c 0 -i 96 -a 0 -x {14.0 0.13 6 ------- null}
r -t 0.225877003781063 -s 15 -d 0 -p cbr -e 1024 -c 0 -i 94 -a 0 -x {6.0 0.5 6 ------- null}
h -t 0.226043431988256 -s 10 -d 15 -p cbr -e 1024 -c 0 -i 97 -a 0 -x {10.0 0.9 7 ------- null}
+ -t 0.226069031988256 -s 10 -d 15 -p cbr -e 1024 -c 0 -i 97 -a 0 -x {10.0 0.9 7 ------- null}
h -t 0.226354594154662 -s 11 -d 15 -p cbr -e 1024 -c 0 -i 98 -a 0 -x {11.0 0.10 6 ------- null}
+ -t 0.226380194154662 -s 11 -d 15 -p cbr -e 1024 -c 0 -i 98 -a 0 -x {11.0 0.10 6 ------- null}
h -t 0.226458402356711 -s 4 -d 15 -p cbr -e 1024 -c 0 -i 99 -a 0 -x {4.0 0.3 7 ------- null}
+ -t 0.226484002356711 -s 4 -d 15 -p cbr -e 1024 -c 0 -i 99 -a 0 -x {4.0 0.3 7 ------- null}
r -t 0.226721003781063 -s 15 -d 0 -p cbr -e 1024 -c 0 -i 93 -a 0 -x {13.0 0.12 7 ------- null}
h -t 0.227296834170501 -s 5 -d 15 -p cbr -e 1024 -c 0 -i 100 -a 0 -x {5.0 0.4 8 ------- null}
+ -t 0.227322434170501 -s 5 -d 15 -p cbr -e 1024 -c 0 -i 100 -a 0 -x {5.0 0.4 8 ------- null}