h 0.2 1 15 cbr 1024 ------- 0 1.0 0.0 0 0
h 0.2 2 15 cbr 1024 ------- 0 2.0 0.1 0 1
h 0.2 3 15 cbr 1024 ------- 0 3.0 0.2 0 2
h 0.2 4 15 cbr 1024 ------- 0 4.0 0.3 0 3
h 0.2 5 15 cbr 1024 ------- 0 5.0 0.4 0 4
h 0.2 6 15 cbr 1024 ------- 0 6.0 0.5 0 5
h 0.2 7 15 cbr 1024 ------- 0 7.0 0.6 0 6
h 0.2 8 15 cbr 1024 ------- 0 8.0 0.7 0 7
h 0.2 9 15 cbr 1024 ------- 0 9.0 0.8 0 8
h 0.2 10 15 cbr 1024 ------- 0 10.0 0.9 0 9
h 0.2 11 15 cbr 1024 ------- 0 11.0 0.10 0 10
h 0.2 12 15 cbr 1024 ------- 0 12.0 0.11 0 11
h 0.2 13 15 cbr 1024 ------- 0 13.0 0.12 0 12
h 0.2 14 15 cbr 1024 ------- 0 14.0 0.13 0 13
+ 0.200026 1 15 cbr 1024 ------- 0 1.0 0.0 0 0
- 0.200026 1 15 cbr 1024 ------- 0 1.0 0.0 0 0
+ 0.200026 2 15 cbr 1024 ------- 0 2.0 0.1 0 1
- 0.200026 2 15 cbr 1024 ------- 0 2.0 0.1 0 1
+ 0.200026 3 15 cbr 1024 ------- 0 3.0 0.2 0 2
- 0.200026 3 15 cbr 1024 ------- 0 3.0 0.2 0 2
+ 0.200026 4 15 cbr 1024 ------- 0 4.0 0.3 0 3
- 0.200026 4 15 cbr 1024 ------- 0 4.0 0.3 0 3
+ 0.200026 5 15 cbr 1024 ------- 0 5.0 0.4 0 4
- 0.200026 5 15 cbr 1024 ------- 0 5.0 0.4 0 4
+ 0.200026 6 15 cbr 1024 ------- 0 6.0 0.5 0 5
- 0.200026 6 15 cbr 1024 ------- 0 6.0 0.5 0 5
+ 0.200026 7 15 cbr 1024 ------- 0 7.0 0.6 0 6
- 0.200026 7 15 cbr 1024 ------- 0 7.0 0.6 0 6
+ 0.200026 8 15 cbr 1024 ------- 0 8.0 0.7 0 7
- 0.200026 8 15 cbr 1024 ------- 0 8.0 0.7 0 7
+ 0.200026 9 15 cbr 1024 ------- 0 9.0 0.8 0 8
- 0.200026 9 15 cbr 1024 ------- 0 9.0 0.8 0 8
+ 0.200026 10 15 cbr 1024 ------- 0 10.0 0.9 0 9
- 0.200026 10 15 cbr 1024 ------- 0 10.0 0.9 0 9
+ 0.200026 11 15 cbr 1024 ------- 0 11.0 0.10 0 10
- 0.200026 11 15 cbr 1024 ------- 0 11.0 0.10 0 10
+ 0.200026 12 15 cbr 1024 ------- 0 12.0 0.11 0 11
- 0.200026 12 15 cbr 1024 ------- 0 12.0 0.11 0 11
+ 0.200026 13 15 cbr 1024 ------- 0 13.0 0.12 0 12
- 0.200026 13 15 cbr 1024 ------- 0 13.0 0.12 0 12
+ 0.200026 14 15 cbr 1024 ------- 0 14.0 0.13 0 13
- 0.200026 14 15 cbr 1024 ------- 0 14.0 0.13 0 13
r 0.200919 15 0 cbr 1024 ------- 0 9.0 0.8 0 8
r 0.20178 15 0 cbr 1024 ------- 0 7.0 0.6 0 6
h 0.202049 1 15 cbr 1024 ------- 0 1.0 0.0 1 14
+ 0.202075 1 15 cbr 1024 ------- 0 1.0 0.0 1 14
h 0.202106 3 15 cbr 1024 ------- 0 3.0 0.2 1 15
+ 0.202132 3 15 cbr 1024 ------- 0 3.0 0.2 1 15
h 0.202223 14 15 cbr 1024 ------- 0 14.0 0.13 1 16
+ 0.202249 14 15 cbr 1024 ------- 0 14.0 0.13 1 16
h 0.202409 4 15 cbr 1024 ------- 0 4.0 0.3 1 17
+ 0.202435 4 15 cbr 1024 ------- 0 4.0 0.3 1 17
r 0.202641 15 0 cbr 1024 ------- 0 12.0 0.11 0 11
h 0.20272 13 15 cbr 1024 ------- 0 13.0 0.12 1 18
+ 0.202746 13 15 cbr 1024 ------- 0 13.0 0.12 1 18
h 0.203009 9 15 cbr 1024 ------- 0 9.0 0.8 1 19
+ 0.203035 9 15 cbr 1024 ------- 0 9.0 0.8 1 19
- 0.203035 9 15 cbr 1024 ------- 0 9.0 0.8 1 19
h 0.203314 11 15 cbr 1024 ------- 0 11.0 0.10 1 20
h 0.20333 7 15 cbr 1024 ------- 0 7.0 0.6 1 21
+ 0.20334 11 15 cbr 1024 ------- 0 11.0 0.10 1 20
+ 0.203355 7 15 cbr 1024 ------- 0 7.0 0.6 1 21
- 0.203355 7 15 cbr 1024 ------- 0 7.0 0.6 1 21
- 0.203584 3 15 cbr 1024 ------- 0 3.0 0.2 1 15
r 0.203604 15 0 cbr 1024 ------- 0 3.0 0.2 0 2
h 0.203855 5 15 cbr 1024 ------- 0 5.0 0.4 1 22
+ 0.203881 5 15 cbr 1024 ------- 0 5.0 0.4 1 22
h 0.204325 2 15 cbr 1024 ------- 0 2.0 0.1 1 23
+ 0.20435 2 15 cbr 1024 ------- 0 2.0 0.1 1 23
h 0.204665 10 15 cbr 1024 ------- 0 10.0 0.9 1 24
+ 0.20469 10 15 cbr 1024 ------- 0 10.0 0.9 1 24
r 0.20475 15 0 cbr 1024 ------- 0 7.0 0.6 1 21
h 0.20486 1 15 cbr 1024 ------- 0 1.0 0.0 2 25
+ 0.204886 1 15 cbr 1024 ------- 0 1.0 0.0 2 25
h 0.20513 13 15 cbr 1024 ------- 0 13.0 0.12 2 26
+ 0.205155 13 15 cbr 1024 ------- 0 13.0 0.12 2 26
h 0.205321 6 15 cbr 1024 ------- 0 6.0 0.5 1 27
+ 0.205347 6 15 cbr 1024 ------- 0 6.0 0.5 1 27
h 0.205392 8 15 cbr 1024 ------- 0 8.0 0.7 1 28
+ 0.205418 8 15 cbr 1024 ------- 0 8.0 0.7 1 28
h 0.205474 12 15 cbr 1024 ------- 0 12.0 0.11 1 29
+ 0.205499 12 15 cbr 1024 ------- 0 12.0 0.11 1 29
- 0.205499 12 15 cbr 1024 ------- 0 12.0 0.11 1 29
r 0.205918 15 0 cbr 1024 ------- 0 9.0 0.8 1 19
r 0.20683 15 0 cbr 1024 ------- 0 12.0 0.11 1 29
h 0.206847 10 15 cbr 1024 ------- 0 10.0 0.9 2 30
+ 0.206873 10 15 cbr 1024 ------- 0 10.0 0.9 2 30
h 0.207039 1 15 cbr 1024 ------- 0 1.0 0.0 3 31
+ 0.207065 1 15 cbr 1024 ------- 0 1.0 0.0 3 31
h 0.207369 3 15 cbr 1024 ------- 0 3.0 0.2 2 32
+ 0.207395 3 15 cbr 1024 ------- 0 3.0 0.2 2 32
h 0.207622 4 15 cbr 1024 ------- 0 4.0 0.3 2 33
+ 0.207648 4 15 cbr 1024 ------- 0 4.0 0.3 2 33
- 0.207895 13 15 cbr 1024 ------- 0 13.0 0.12 1 18
r 0.207915 15 0 cbr 1024 ------- 0 13.0 0.12 0 12
h 0.208149 14 15 cbr 1024 ------- 0 14.0 0.13 2 34
+ 0.208175 14 15 cbr 1024 ------- 0 14.0 0.13 2 34
h 0.20836 7 15 cbr 1024 ------- 0 7.0 0.6 2 35
h 0.208372 12 15 cbr 1024 ------- 0 12.0 0.11 2 36
+ 0.208386 7 15 cbr 1024 ------- 0 7.0 0.6 2 35
- 0.208386 7 15 cbr 1024 ------- 0 7.0 0.6 2 35
h 0.208393 9 15 cbr 1024 ------- 0 9.0 0.8 2 37
+ 0.208398 12 15 cbr 1024 ------- 0 12.0 0.11 2 36
- 0.208398 12 15 cbr 1024 ------- 0 12.0 0.11 2 36
+ 0.208418 9 15 cbr 1024 ------- 0 9.0 0.8 2 37
- 0.208418 9 15 cbr 1024 ------- 0 9.0 0.8 2 37
h 0.208753 5 15 cbr 1024 ------- 0 5.0 0.4 2 38
- 0.208756 13 15 cbr 1024 ------- 0 13.0 0.12 2 26
r 0.208776 15 0 cbr 1024 ------- 0 13.0 0.12 1 18
+ 0.208778 5 15 cbr 1024 ------- 0 5.0 0.4 2 38
h 0.20906 11 15 cbr 1024 ------- 0 11.0 0.10 2 39
+ 0.209086 11 15 cbr 1024 ------- 0 11.0 0.10 2 39
h 0.209289 8 15 cbr 1024 ------- 0 8.0 0.7 2 40
+ 0.209314 8 15 cbr 1024 ------- 0 8.0 0.7 2 40
h 0.209502 6 15 cbr 1024 ------- 0 6.0 0.5 2 41
+ 0.209528 6 15 cbr 1024 ------- 0 6.0 0.5 2 41
r 0.209705 15 0 cbr 1024 ------- 0 7.0 0.6 2 35
h 0.210067 3 15 cbr 1024 ------- 0 3.0 0.2 3 42
+ 0.210092 3 15 cbr 1024 ------- 0 3.0 0.2 3 42
h 0.210108 2 15 cbr 1024 ------- 0 2.0 0.1 2 43
+ 0.210134 2 15 cbr 1024 ------- 0 2.0 0.1 2 43
h 0.210412 13 15 cbr 1024 ------- 0 13.0 0.12 3 44
+ 0.210438 13 15 cbr 1024 ------- 0 13.0 0.12 3 44
r 0.210617 15 0 cbr 1024 ------- 0 12.0 0.11 2 36
h 0.210635 4 15 cbr 1024 ------- 0 4.0 0.3 3 45
+ 0.21066 4 15 cbr 1024 ------- 0 4.0 0.3 3 45
h 0.210681 9 15 cbr 1024 ------- 0 9.0 0.8 3 46
+ 0.210707 9 15 cbr 1024 ------- 0 9.0 0.8 3 46
h 0.210881 10 15 cbr 1024 ------- 0 10.0 0.9 3 47
+ 0.210906 10 15 cbr 1024 ------- 0 10.0 0.9 3 47
h 0.211337 7 15 cbr 1024 ------- 0 7.0 0.6 3 48
+ 0.211363 7 15 cbr 1024 ------- 0 7.0 0.6 3 48
- 0.211363 7 15 cbr 1024 ------- 0 7.0 0.6 3 48
- 0.211716 1 15 cbr 1024 ------- 0 1.0 0.0 1 14
r 0.211736 15 0 cbr 1024 ------- 0 1.0 0.0 0 0
h 0.212193 5 15 cbr 1024 ------- 0 5.0 0.4 3 49
+ 0.212219 5 15 cbr 1024 ------- 0 5.0 0.4 3 49
- 0.212726 13 15 cbr 1024 ------- 0 13.0 0.12 3 44
r 0.212746 15 0 cbr 1024 ------- 0 13.0 0.12 2 26
h 0.21276 1 15 cbr 1024 ------- 0 1.0 0.0 4 50
+ 0.212786 1 15 cbr 1024 ------- 0 1.0 0.0 4 50
h 0.21309 14 15 cbr 1024 ------- 0 14.0 0.13 3 51
+ 0.213116 14 15 cbr 1024 ------- 0 14.0 0.13 3 51
h 0.213392 9 15 cbr 1024 ------- 0 9.0 0.8 4 52
+ 0.213418 9 15 cbr 1024 ------- 0 9.0 0.8 4 52
h 0.213537 13 15 cbr 1024 ------- 0 13.0 0.12 4 53
h 0.213549 8 15 cbr 1024 ------- 0 8.0 0.7 3 54
+ 0.213562 13 15 cbr 1024 ------- 0 13.0 0.12 4 53
+ 0.213575 8 15 cbr 1024 ------- 0 8.0 0.7 3 54
r 0.213603 15 0 cbr 1024 ------- 0 7.0 0.6 3 48
h 0.213743 6 15 cbr 1024 ------- 0 6.0 0.5 3 55
+ 0.213769 6 15 cbr 1024 ------- 0 6.0 0.5 3 55
h 0.213821 12 15 cbr 1024 ------- 0 12.0 0.11 3 56
+ 0.213846 12 15 cbr 1024 ------- 0 12.0 0.11 3 56
- 0.213846 12 15 cbr 1024 ------- 0 12.0 0.11 3 56
h 0.214013 10 15 cbr 1024 ------- 0 10.0 0.9 4 57
+ 0.214039 10 15 cbr 1024 ------- 0 10.0 0.9 4 57
- 0.214444 13 15 cbr 1024 ------- 0 13.0 0.12 4 53
h 0.214462 5 15 cbr 1024 ------- 0 5.0 0.4 4 58
r 0.214464 15 0 cbr 1024 ------- 0 13.0 0.12 3 44
+ 0.214488 5 15 cbr 1024 ------- 0 5.0 0.4 4 58
h 0.214936 7 15 cbr 1024 ------- 0 7.0 0.6 4 59
+ 0.214962 7 15 cbr 1024 ------- 0 7.0 0.6 4 59
- 0.214962 7 15 cbr 1024 ------- 0 7.0 0.6 4 59
h 0.214979 11 15 cbr 1024 ------- 0 11.0 0.10 3 60
+ 0.215004 11 15 cbr 1024 ------- 0 11.0 0.10 3 60
h 0.215145 2 15 cbr 1024 ------- 0 2.0 0.1 3 61
+ 0.215171 2 15 cbr 1024 ------- 0 2.0 0.1 3 61
h 0.215375 4 15 cbr 1024 ------- 0 4.0 0.3 4 62
+ 0.2154 4 15 cbr 1024 ------- 0 4.0 0.3 4 62
r 0.21544 15 0 cbr 1024 ------- 0 13.0 0.12 4 53
h 0.215723 3 15 cbr 1024 ------- 0 3.0 0.2 4 63
+ 0.215749 3 15 cbr 1024 ------- 0 3.0 0.2 4 63
h 0.215806 6 15 cbr 1024 ------- 0 6.0 0.5 4 64
+ 0.215831 6 15 cbr 1024 ------- 0 6.0 0.5 4 64
h 0.216116 13 15 cbr 1024 ------- 0 13.0 0.12 5 65
+ 0.216142 13 15 cbr 1024 ------- 0 13.0 0.12 5 65
- 0.216142 13 15 cbr 1024 ------- 0 13.0 0.12 5 65
r 0.216301 15 0 cbr 1024 ------- 0 7.0 0.6 4 59
h 0.216373 10 15 cbr 1024 ------- 0 10.0 0.9 5 66
+ 0.216398 10 15 cbr 1024 ------- 0 10.0 0.9 5 66
h 0.216747 14 15 cbr 1024 ------- 0 14.0 0.13 4 67
+ 0.216773 14 15 cbr 1024 ------- 0 14.0 0.13 4 67
r 0.217162 15 0 cbr 1024 ------- 0 13.0 0.12 5 65
h 0.217162 5 15 cbr 1024 ------- 0 5.0 0.4 5 68
+ 0.217187 5 15 cbr 1024 ------- 0 5.0 0.4 5 68
h 0.217666 9 15 cbr 1024 ------- 0 9.0 0.8 5 69
+ 0.217692 9 15 cbr 1024 ------- 0 9.0 0.8 5 69
h 0.217974 8 15 cbr 1024 ------- 0 8.0 0.7 4 70
+ 0.218 8 15 cbr 1024 ------- 0 8.0 0.7 4 70
- 0.218116 6 15 cbr 1024 ------- 0 6.0 0.5 1 27
r 0.218136 15 0 cbr 1024 ------- 0 6.0 0.5 0 5
h 0.218208 1 15 cbr 1024 ------- 0 1.0 0.0 5 71
+ 0.218234 1 15 cbr 1024 ------- 0 1.0 0.0 5 71
h 0.218684 4 15 cbr 1024 ------- 0 4.0 0.3 5 72
+ 0.21871 4 15 cbr 1024 ------- 0 4.0 0.3 5 72
h 0.218796 11 15 cbr 1024 ------- 0 11.0 0.10 4 73
+ 0.218821 11 15 cbr 1024 ------- 0 11.0 0.10 4 73
- 0.218977 6 15 cbr 1024 ------- 0 6.0 0.5 2 41
r 0.218997 15 0 cbr 1024 ------- 0 6.0 0.5 1 27
h 0.219119 12 15 cbr 1024 ------- 0 12.0 0.11 4 74
+ 0.219145 12 15 cbr 1024 ------- 0 12.0 0.11 4 74
h 0.21919 2 15 cbr 1024 ------- 0 2.0 0.1 4 75
+ 0.219216 2 15 cbr 1024 ------- 0 2.0 0.1 4 75
h 0.2193 6 15 cbr 1024 ------- 0 6.0 0.5 5 76
+ 0.219326 6 15 cbr 1024 ------- 0 6.0 0.5 5 76
h 0.219355 5 15 cbr 1024 ------- 0 5.0 0.4 6 77
+ 0.219381 5 15 cbr 1024 ------- 0 5.0 0.4 6 77
- 0.219838 6 15 cbr 1024 ------- 0 6.0 0.5 3 55
r 0.219858 15 0 cbr 1024 ------- 0 6.0 0.5 2 41
h 0.219868 7 15 cbr 1024 ------- 0 7.0 0.6 5 78
+ 0.219894 7 15 cbr 1024 ------- 0 7.0 0.6 5 78
- 0.219894 7 15 cbr 1024 ------- 0 7.0 0.6 5 78
h 0.220121 13 15 cbr 1024 ------- 0 13.0 0.12 6 79
+ 0.220146 13 15 cbr 1024 ------- 0 13.0 0.12 6 79
- 0.220146 13 15 cbr 1024 ------- 0 13.0 0.12 6 79
h 0.22049 10 15 cbr 1024 ------- 0 10.0 0.9 6 80
+ 0.220515 10 15 cbr 1024 ------- 0 10.0 0.9 6 80
h 0.220635 8 15 cbr 1024 ------- 0 8.0 0.7 5 81
+ 0.220661 8 15 cbr 1024 ------- 0 8.0 0.7 5 81
r 0.220754 15 0 cbr 1024 ------- 0 7.0 0.6 5 78
h 0.22079 1 15 cbr 1024 ------- 0 1.0 0.0 6 82
+ 0.220816 1 15 cbr 1024 ------- 0 1.0 0.0 6 82
h 0.220959 4 15 cbr 1024 ------- 0 4.0 0.3 6 83
+ 0.220985 4 15 cbr 1024 ------- 0 4.0 0.3 6 83
h 0.221427 14 15 cbr 1024 ------- 0 14.0 0.13 5 84
h 0.221451 3 15 cbr 1024 ------- 0 3.0 0.2 5 85
+ 0.221452 14 15 cbr 1024 ------- 0 14.0 0.13 5 84
+ 0.221476 3 15 cbr 1024 ------- 0 3.0 0.2 5 85
r 0.221615 15 0 cbr 1024 ------- 0 13.0 0.12 6 79
h 0.222366 9 15 cbr 1024 ------- 0 9.0 0.8 6 86
+ 0.222392 9 15 cbr 1024 ------- 0 9.0 0.8 6 86
- 0.222455 6 15 cbr 1024 ------- 0 6.0 0.5 4 64
r 0.222475 15 0 cbr 1024 ------- 0 6.0 0.5 3 55
h 0.222704 12 15 cbr 1024 ------- 0 12.0 0.11 5 87
+ 0.22273 12 15 cbr 1024 ------- 0 12.0 0.11 5 87
h 0.222769 2 15 cbr 1024 ------- 0 2.0 0.1 5 88
+ 0.222795 2 15 cbr 1024 ------- 0 2.0 0.1 5 88
h 0.222959 11 15 cbr 1024 ------- 0 11.0 0.10 5 89
+ 0.222985 11 15 cbr 1024 ------- 0 11.0 0.10 5 89
h 0.223156 5 15 cbr 1024 ------- 0 5.0 0.4 7 90
+ 0.223182 5 15 cbr 1024 ------- 0 5.0 0.4 7 90
- 0.223295 6 15 cbr 1024 ------- 0 6.0 0.5 5 76
r 0.223315 15 0 cbr 1024 ------- 0 6.0 0.5 4 64
h 0.223806 7 15 cbr 1024 ------- 0 7.0 0.6 6 91
+ 0.223831 7 15 cbr 1024 ------- 0 7.0 0.6 6 91
- 0.223831 7 15 cbr 1024 ------- 0 7.0 0.6 6 91
h 0.224119 1 15 cbr 1024 ------- 0 1.0 0.0 7 92
+ 0.224145 1 15 cbr 1024 ------- 0 1.0 0.0 7 92
r 0.224155 15 0 cbr 1024 ------- 0 6.0 0.5 5 76
h 0.224299 13 15 cbr 1024 ------- 0 13.0 0.12 7 93
+ 0.224324 13 15 cbr 1024 ------- 0 13.0 0.12 7 93
- 0.224324 13 15 cbr 1024 ------- 0 13.0 0.12 7 93
h 0.224531 6 15 cbr 1024 ------- 0 6.0 0.5 6 94
+ 0.224556 6 15 cbr 1024 ------- 0 6.0 0.5 6 94
- 0.224556 6 15 cbr 1024 ------- 0 6.0 0.5 6 94
r 0.225016 15 0 cbr 1024 ------- 0 7.0 0.6 6 91
h 0.225062 8 15 cbr 1024 ------- 0 8.0 0.7 6 95
+ 0.225087 8 15 cbr 1024 ------- 0 8.0 0.7 6 95
h 0.225412 14 15 cbr 1024 ------- 0 14.0 0.13 6 96
+ 0.225438 14 15 cbr 1024 ------- 0 14.0 0.13 6 96
r 0.225877 15 0 cbr 1024 ------- 0 6.0 0.5 6 94
h 0.226043 10 15 cbr 1024 ------- 0 10.0 0.9 7 97
+ 0.226069 10 15 cbr 1024 ------- 0 10.0 0.9 7 97
h 0.226355 11 15 cbr 1024 ------- 0 11.0 0.10 6 98
+ 0.22638 11 15 cbr 1024 ------- 0 11.0 0.10 6 98
h 0.226458 4 15 cbr 1024 ------- 0 4.0 0.3 7 99
+ 0.226484 4 15 cbr 1024 ------- 0 4.0 0.3 7 99
r 0.226721 15 0 cbr 1024 ------- 0 13.0 0.12 7 93
h 0.227297 5 15 cbr 1024 ------- 0 5.0 0.4 8 100
+ 0.227322 5 15 cbr 1024 ------- 0 5.0 0.4 8 100
h 0.227447 13 15 cbr 1024 ------- 0 13.0 0.12 8 101
+ 0.227473 13 15 cbr 1024 ------- 0 13.0 0.12 8 101
- 0.227473 13 15 cbr 1024 ------- 0 13.0 0.12 8 101
h 0.227543 3 15 cbr 1024 ------- 0 3.0 0.2 6 102
- 0.227545 11 15 cbr 1024 ------- 0 11.0 0.10 1 20
r 0.227565 15 0 cbr 1024 ------- 0 11.0 0.10 0 10
+ 0.227568 3 15 cbr 1024 ------- 0 3.0 0.2 6 102
h 0.227603 14 15 cbr 1024 ------- 0 14.0 0.13 7 103
+ 0.227628 14 15 cbr 1024 ------- 0 14.0 0.13 7 103
h 0.22794 9 15 cbr 1024 ------- 0 9.0 0.8 7 104
+ 0.227965 9 15 cbr 1024 ------- 0 9.0 0.8 7 104
h 0.227974 6 15 cbr 1024 ------- 0 6.0 0.5 7 105
+ 0.228 6 15 cbr 1024 ------- 0 6.0 0.5 7 105
- 0.228 6 15 cbr 1024 ------- 0 6.0 0.5 7 105
h 0.228002 1 15 cbr 1024 ------- 0 1.0 0.0 8 106
+ 0.228028 1 15 cbr 1024 ------- 0 1.0 0.0 8 106
h 0.228139 8 15 cbr 1024 ------- 0 8.0 0.7 7 107
+ 0.228164 8 15 cbr 1024 ------- 0 8.0 0.7 7 107
h 0.22836 10 15 cbr 1024 ------- 0 10.0 0.9 8 108
+ 0.228386 10 15 cbr 1024 ------- 0 10.0 0.9 8 108
h 0.228503 12 15 cbr 1024 ------- 0 12.0 0.11 6 109
h 0.228515 2 15 cbr 1024 ------- 0 2.0 0.1 6 110
+ 0.228528 12 15 cbr 1024 ------- 0 12.0 0.11 6 109
+ 0.22854 2 15 cbr 1024 ------- 0 2.0 0.1 6 110
r 0.228545 15 0 cbr 1024 ------- 0 13.0 0.12 8 101
h 0.228841 4 15 cbr 1024 ------- 0 4.0 0.3 8 111
+ 0.228866 4 15 cbr 1024 ------- 0 4.0 0.3 8 111
h 0.229002 7 15 cbr 1024 ------- 0 7.0 0.6 7 112
+ 0.229028 7 15 cbr 1024 ------- 0 7.0 0.6 7 112
- 0.229028 7 15 cbr 1024 ------- 0 7.0 0.6 7 112
r 0.229406 15 0 cbr 1024 ------- 0 6.0 0.5 7 105
r 0.230318 15 0 cbr 1024 ------- 0 7.0 0.6 7 112
h 0.23042 11 15 cbr 1024 ------- 0 11.0 0.10 7 113
+ 0.230446 11 15 cbr 1024 ------- 0 11.0 0.10 7 113
h 0.230911 2 15 cbr 1024 ------- 0 2.0 0.1 7 114
+ 0.230937 2 15 cbr 1024 ------- 0 2.0 0.1 7 114
h 0.230953 12 15 cbr 1024 ------- 0 12.0 0.11 7 115
+ 0.230978 12 15 cbr 1024 ------- 0 12.0 0.11 7 115
h 0.231202 4 15 cbr 1024 ------- 0 4.0 0.3 9 116
+ 0.231228 4 15 cbr 1024 ------- 0 4.0 0.3 9 116
h 0.231243 8 15 cbr 1024 ------- 0 8.0 0.7 8 117
+ 0.231268 8 15 cbr 1024 ------- 0 8.0 0.7 8 117
h 0.231304 9 15 cbr 1024 ------- 0 9.0 0.8 8 118
+ 0.231329 9 15 cbr 1024 ------- 0 9.0 0.8 8 118
h 0.231434 14 15 cbr 1024 ------- 0 14.0 0.13 8 119
+ 0.23146 14 15 cbr 1024 ------- 0 14.0 0.13 8 119
h 0.231499 13 15 cbr 1024 ------- 0 13.0 0.12 9 120
+ 0.231525 13 15 cbr 1024 ------- 0 13.0 0.12 9 120
- 0.231525 13 15 cbr 1024 ------- 0 13.0 0.12 9 120
h 0.231565 3 15 cbr 1024 ------- 0 3.0 0.2 7 121
+ 0.231591 3 15 cbr 1024 ------- 0 3.0 0.2 7 121
h 0.231933 10 15 cbr 1024 ------- 0 10.0 0.9 9 122
+ 0.231958 10 15 cbr 1024 ------- 0 10.0 0.9 9 122
h 0.231972 1 15 cbr 1024 ------- 0 1.0 0.0 9 123
+ 0.231998 1 15 cbr 1024 ------- 0 1.0 0.0 9 123
r 0.232385 15 0 cbr 1024 ------- 0 13.0 0.12 9 120
h 0.232402 6 15 cbr 1024 ------- 0 6.0 0.5 8 124
+ 0.232428 6 15 cbr 1024 ------- 0 6.0 0.5 8 124
- 0.232428 6 15 cbr 1024 ------- 0 6.0 0.5 8 124
h 0.232768 5 15 cbr 1024 ------- 0 5.0 0.4 9 125
+ 0.232794 5 15 cbr 1024 ------- 0 5.0 0.4 9 125
h 0.232864 7 15 cbr 1024 ------- 0 7.0 0.6 8 126
+ 0.23289 7 15 cbr 1024 ------- 0 7.0 0.6 8 126
- 0.23289 7 15 cbr 1024 ------- 0 7.0 0.6 8 126
- 0.233209 11 15 cbr 1024 ------- 0 11.0 0.10 2 39
r 0.233229 15 0 cbr 1024 ------- 0 11.0 0.10 1 20
h 0.233712 11 15 cbr 1024 ------- 0 11.0 0.10 8 127
+ 0.233737 11 15 cbr 1024 ------- 0 11.0 0.10 8 127
h 0.234125 8 15 cbr 1024 ------- 0 8.0 0.7 9 128
r 0.234137 15 0 cbr 1024 ------- 0 6.0 0.5 8 124
+ 0.23415 8 15 cbr 1024 ------- 0 8.0 0.7 9 128
h 0.234561 1 15 cbr 1024 ------- 0 1.0 0.0 10 129
+ 0.234587 1 15 cbr 1024 ------- 0 1.0 0.0 10 129
h 0.234636 2 15 cbr 1024 ------- 0 2.0 0.1 8 130
+ 0.234662 2 15 cbr 1024 ------- 0 2.0 0.1 8 130
h 0.234966 14 15 cbr 1024 ------- 0 14.0 0.13 9 131
+ 0.234992 14 15 cbr 1024 ------- 0 14.0 0.13 9 131
r 0.234998 15 0 cbr 1024 ------- 0 7.0 0.6 8 126
h 0.235895 12 15 cbr 1024 ------- 0 12.0 0.11 8 132
+ 0.235921 12 15 cbr 1024 ------- 0 12.0 0.11 8 132
h 0.236022 10 15 cbr 1024 ------- 0 10.0 0.9 10 133
+ 0.236048 10 15 cbr 1024 ------- 0 10.0 0.9 10 133
h 0.23611 3 15 cbr 1024 ------- 0 3.0 0.2 8 134
+ 0.236135 3 15 cbr 1024 ------- 0 3.0 0.2 8 134
- 0.236197 11 15 cbr 1024 ------- 0 11.0 0.10 3 60
r 0.236217 15 0 cbr 1024 ------- 0 11.0 0.10 2 39
h 0.236316 4 15 cbr 1024 ------- 0 4.0 0.3 10 135
+ 0.236342 4 15 cbr 1024 ------- 0 4.0 0.3 10 135
h 0.236812 13 15 cbr 1024 ------- 0 13.0 0.12 10 136
+ 0.236838 13 15 cbr 1024 ------- 0 13.0 0.12 10 136
- 0.236838 13 15 cbr 1024 ------- 0 13.0 0.12 10 136
- 0.237037 11 15 cbr 1024 ------- 0 11.0 0.10 4 73
r 0.237057 15 0 cbr 1024 ------- 0 11.0 0.10 3 60
h 0.237391 9 15 cbr 1024 ------- 0 9.0 0.8 9 137
+ 0.237417 9 15 cbr 1024 ------- 0 9.0 0.8 9 137
r 0.237914 15 0 cbr 1024 ------- 0 13.0 0.12 10 136
h 0.23815 6 15 cbr 1024 ------- 0 6.0 0.5 9 138
+ 0.238176 6 15 cbr 1024 ------- 0 6.0 0.5 9 138
- 0.238176 6 15 cbr 1024 ------- 0 6.0 0.5 9 138
h 0.238197 11 15 cbr 1024 ------- 0 11.0 0.10 9 139
+ 0.238223 11 15 cbr 1024 ------- 0 11.0 0.10 9 139
h 0.238463 7 15 cbr 1024 ------- 0 7.0 0.6 9 140
+ 0.238488 7 15 cbr 1024 ------- 0 7.0 0.6 9 140
- 0.238488 7 15 cbr 1024 ------- 0 7.0 0.6 9 140
h 0.238506 5 15 cbr 1024 ------- 0 5.0 0.4 10 141
+ 0.238531 5 15 cbr 1024 ------- 0 5.0 0.4 10 141
h 0.238694 10 15 cbr 1024 ------- 0 10.0 0.9 11 142
+ 0.238719 10 15 cbr 1024 ------- 0 10.0 0.9 11 142
- 0.238738 11 15 cbr 1024 ------- 0 11.0 0.10 5 89
h 0.238745 2 15 cbr 1024 ------- 0 2.0 0.1 9 143
r 0.238758 15 0 cbr 1024 ------- 0 11.0 0.10 4 73
+ 0.238771 2 15 cbr 1024 ------- 0 2.0 0.1 9 143
h 0.238896 4 15 cbr 1024 ------- 0 4.0 0.3 11 144
+ 0.238921 4 15 cbr 1024 ------- 0 4.0 0.3 11 144
h 0.239079 12 15 cbr 1024 ------- 0 12.0 0.11 9 145
+ 0.239104 12 15 cbr 1024 ------- 0 12.0 0.11 9 145
h 0.239277 3 15 cbr 1024 ------- 0 3.0 0.2 9 146
+ 0.239302 3 15 cbr 1024 ------- 0 3.0 0.2 9 146
h 0.239438 1 15 cbr 1024 ------- 0 1.0 0.0 11 147
+ 0.239463 1 15 cbr 1024 ------- 0 1.0 0.0 11 147
h 0.239463 8 15 cbr 1024 ------- 0 8.0 0.7 10 148
+ 0.239489 8 15 cbr 1024 ------- 0 8.0 0.7 10 148
r 0.239614 15 0 cbr 1024 ------- 0 6.0 0.5 9 138
h 0.239714 14 15 cbr 1024 ------- 0 14.0 0.13 10 149
+ 0.23974 14 15 cbr 1024 ------- 0 14.0 0.13 10 149
- 0.240455 11 15 cbr 1024 ------- 0 11.0 0.10 6 98
r 0.240475 15 0 cbr 1024 ------- 0 11.0 0.10 5 89
h 0.240755 11 15 cbr 1024 ------- 0 11.0 0.10 10 150
+ 0.240781 11 15 cbr 1024 ------- 0 11.0 0.10 10 150
r 0.241332 15 0 cbr 1024 ------- 0 7.0 0.6 9 140
h 0.241601 5 15 cbr 1024 ------- 0 5.0 0.4 11 151
+ 0.241626 5 15 cbr 1024 ------- 0 5.0 0.4 11 151
h 0.241785 4 15 cbr 1024 ------- 0 4.0 0.3 12 152
+ 0.24181 4 15 cbr 1024 ------- 0 4.0 0.3 12 152
- 0.242156 11 15 cbr 1024 ------- 0 11.0 0.10 7 113
r 0.242176 15 0 cbr 1024 ------- 0 11.0 0.10 6 98
h 0.242271 9 15 cbr 1024 ------- 0 9.0 0.8 10 153
h 0.242295 8 15 cbr 1024 ------- 0 8.0 0.7 11 154
+ 0.242297 9 15 cbr 1024 ------- 0 9.0 0.8 10 153
+ 0.24232 8 15 cbr 1024 ------- 0 8.0 0.7 11 154
h 0.242417 7 15 cbr 1024 ------- 0 7.0 0.6 10 155
h 0.242435 6 15 cbr 1024 ------- 0 6.0 0.5 10 156
+ 0.242443 7 15 cbr 1024 ------- 0 7.0 0.6 10 155
- 0.242443 7 15 cbr 1024 ------- 0 7.0 0.6 10 155
+ 0.24246 6 15 cbr 1024 ------- 0 6.0 0.5 10 156
- 0.24246 6 15 cbr 1024 ------- 0 6.0 0.5 10 156
h 0.24247 10 15 cbr 1024 ------- 0 10.0 0.9 12 157
+ 0.242496 10 15 cbr 1024 ------- 0 10.0 0.9 12 157
h 0.242758 14 15 cbr 1024 ------- 0 14.0 0.13 11 158
h 0.242783 13 15 cbr 1024 ------- 0 13.0 0.12 11 159
+ 0.242784 14 15 cbr 1024 ------- 0 14.0 0.13 11 158
+ 0.242808 13 15 cbr 1024 ------- 0 13.0 0.12 11 159
- 0.242808 13 15 cbr 1024 ------- 0 13.0 0.12 11 159
- 0.242996 11 15 cbr 1024 ------- 0 11.0 0.10 8 127
r 0.243016 15 0 cbr 1024 ------- 0 11.0 0.10 7 113
h 0.243761 3 15 cbr 1024 ------- 0 3.0 0.2 10 160
+ 0.243786 3 15 cbr 1024 ------- 0 3.0 0.2 10 160
r 0.24389 15 0 cbr 1024 ------- 0 6.0 0.5 10 156
h 0.243954 12 15 cbr 1024 ------- 0 12.0 0.11 10 161
+ 0.24398 12 15 cbr 1024 ------- 0 12.0 0.11 10 161
h 0.244434 1 15 cbr 1024 ------- 0 1.0 0.0 12 162
+ 0.244459 1 15 cbr 1024 ------- 0 1.0 0.0 12 162
h 0.244612 11 15 cbr 1024 ------- 0 11.0 0.10 11 163
+ 0.244638 11 15 cbr 1024 ------- 0 11.0 0.10 11 163
h 0.244656 6 15 cbr 1024 ------- 0 6.0 0.5 11 164
+ 0.244682 6 15 cbr 1024 ------- 0 6.0 0.5 11 164
- 0.244682 6 15 cbr 1024 ------- 0 6.0 0.5 11 164
h 0.244719 2 15 cbr 1024 ------- 0 2.0 0.1 10 165
+ 0.244745 2 15 cbr 1024 ------- 0 2.0 0.1 10 165
r 0.245109 15 0 cbr 1024 ------- 0 7.0 0.6 10 155
h 0.245602 9 15 cbr 1024 ------- 0 9.0 0.8 11 166
+ 0.245627 9 15 cbr 1024 ------- 0 9.0 0.8 11 166
h 0.245761 8 15 cbr 1024 ------- 0 8.0 0.7 12 167
+ 0.245787 8 15 cbr 1024 ------- 0 8.0 0.7 12 167
r 0.246021 15 0 cbr 1024 ------- 0 6.0 0.5 11 164
h 0.246709 5 15 cbr 1024 ------- 0 5.0 0.4 12 168
+ 0.246735 5 15 cbr 1024 ------- 0 5.0 0.4 12 168
h 0.246934 13 15 cbr 1024 ------- 0 13.0 0.12 12 169
+ 0.246959 13 15 cbr 1024 ------- 0 13.0 0.12 12 169
- 0.247076 13 15 cbr 1024 ------- 0 13.0 0.12 12 169
r 0.247096 15 0 cbr 1024 ------- 0 13.0 0.12 11 159
h 0.247173 4 15 cbr 1024 ------- 0 4.0 0.3 13 170
+ 0.247198 4 15 cbr 1024 ------- 0 4.0 0.3 13 170
h 0.247329 3 15 cbr 1024 ------- 0 3.0 0.2 11 171
+ 0.247355 3 15 cbr 1024 ------- 0 3.0 0.2 11 171
h 0.247362 12 15 cbr 1024 ------- 0 12.0 0.11 11 172
+ 0.247387 12 15 cbr 1024 ------- 0 12.0 0.11 11 172
h 0.247458 10 15 cbr 1024 ------- 0 10.0 0.9 13 173
+ 0.247483 10 15 cbr 1024 ------- 0 10.0 0.9 13 173
h 0.247918 6 15 cbr 1024 ------- 0 6.0 0.5 12 174
r 0.247936 15 0 cbr 1024 ------- 0 13.0 0.12 12 169
+ 0.247944 6 15 cbr 1024 ------- 0 6.0 0.5 12 174
- 0.247944 6 15 cbr 1024 ------- 0 6.0 0.5 12 174
h 0.248047 7 15 cbr 1024 ------- 0 7.0 0.6 11 175
+ 0.248072 7 15 cbr 1024 ------- 0 7.0 0.6 11 175
- 0.248072 7 15 cbr 1024 ------- 0 7.0 0.6 11 175
h 0.248228 14 15 cbr 1024 ------- 0 14.0 0.13 12 176
+ 0.248253 14 15 cbr 1024 ------- 0 14.0 0.13 12 176
- 0.24876 11 15 cbr 1024 ------- 0 11.0 0.10 9 139
r 0.24878 15 0 cbr 1024 ------- 0 11.0 0.10 8 127
h 0.249459 9 15 cbr 1024 ------- 0 9.0 0.8 12 177
+ 0.249485 9 15 cbr 1024 ------- 0 9.0 0.8 12 177
h 0.249543 12 15 cbr 1024 ------- 0 12.0 0.11 12 178
+ 0.249569 12 15 cbr 1024 ------- 0 12.0 0.11 12 178
h 0.249585 4 15 cbr 1024 ------- 0 4.0 0.3 14 179
+ 0.24961 4 15 cbr 1024 ------- 0 4.0 0.3 14 179
h 0.249644 13 15 cbr 1024 ------- 0 13.0 0.12 13 180
+ 0.249669 13 15 cbr 1024 ------- 0 13.0 0.12 13 180
- 0.249669 13 15 cbr 1024 ------- 0 13.0 0.12 13 180
- 0.249672 11 15 cbr 1024 ------- 0 11.0 0.10 10 150
h 0.249678 11 15 cbr 1024 ------- 0 11.0 0.10 12 181
r 0.249692 15 0 cbr 1024 ------- 0 11.0 0.10 9 139
+ 0.249704 11 15 cbr 1024 ------- 0 11.0 0.10 12 181
h 0.249885 5 15 cbr 1024 ------- 0 5.0 0.4 13 182
+ 0.24991 5 15 cbr 1024 ------- 0 5.0 0.4 13 182
h 0.250263 1 15 cbr 1024 ------- 0 1.0 0.0 13 183
h 0.250268 2 15 cbr 1024 ------- 0 2.0 0.1 11 184
+ 0.250288 1 15 cbr 1024 ------- 0 1.0 0.0 13 183
+ 0.250294 2 15 cbr 1024 ------- 0 2.0 0.1 11 184
h 0.250531 6 15 cbr 1024 ------- 0 6.0 0.5 13 185
r 0.250549 15 0 cbr 1024 ------- 0 13.0 0.12 13 180
+ 0.250557 6 15 cbr 1024 ------- 0 6.0 0.5 13 185
h 0.251034 14 15 cbr 1024 ------- 0 14.0 0.13 13 186
+ 0.251059 14 15 cbr 1024 ------- 0 14.0 0.13 13 186
h 0.251124 8 15 cbr 1024 ------- 0 8.0 0.7 13 187
h 0.251149 10 15 cbr 1024 ------- 0 10.0 0.9 14 188
+ 0.251149 8 15 cbr 1024 ------- 0 8.0 0.7 13 187
+ 0.251174 10 15 cbr 1024 ------- 0 10.0 0.9 14 188
- 0.251611 11 15 cbr 1024 ------- 0 11.0 0.10 11 163
r 0.251631 15 0 cbr 1024 ------- 0 11.0 0.10 10 150
h 0.252078 11 15 cbr 1024 ------- 0 11.0 0.10 13 189
h 0.252078 7 15 cbr 1024 ------- 0 7.0 0.6 12 190
+ 0.252103 11 15 cbr 1024 ------- 0 11.0 0.10 13 189
+ 0.252104 7 15 cbr 1024 ------- 0 7.0 0.6 12 190
- 0.252472 11 15 cbr 1024 ------- 0 11.0 0.10 12 181
r 0.252492 15 0 cbr 1024 ------- 0 11.0 0.10 11 163
h 0.253108 5 15 cbr 1024 ------- 0 5.0 0.4 14 191
+ 0.253133 5 15 cbr 1024 ------- 0 5.0 0.4 14 191
- 0.253312 11 15 cbr 1024 ------- 0 11.0 0.10 13 189
r 0.253332 15 0 cbr 1024 ------- 0 11.0 0.10 12 181
h 0.253364 3 15 cbr 1024 ------- 0 3.0 0.2 12 192
+ 0.253389 3 15 cbr 1024 ------- 0 3.0 0.2 12 192
h 0.253711 4 15 cbr 1024 ------- 0 4.0 0.3 15 193
+ 0.253737 4 15 cbr 1024 ------- 0 4.0 0.3 15 193
r 0.254244 15 0 cbr 1024 ------- 0 11.0 0.10 13 189
h 0.254501 8 15 cbr 1024 ------- 0 8.0 0.7 14 194
+ 0.254527 8 15 cbr 1024 ------- 0 8.0 0.7 14 194
h 0.254706 9 15 cbr 1024 ------- 0 9.0 0.8 13 195
+ 0.254731 9 15 cbr 1024 ------- 0 9.0 0.8 13 195
h 0.254935 7 15 cbr 1024 ------- 0 7.0 0.6 13 196
+ 0.25496 7 15 cbr 1024 ------- 0 7.0 0.6 13 196
h 0.255131 12 15 cbr 1024 ------- 0 12.0 0.11 13 197
+ 0.255157 12 15 cbr 1024 ------- 0 12.0 0.11 13 197
h 0.255252 6 15 cbr 1024 ------- 0 6.0 0.5 14 198
+ 0.255277 6 15 cbr 1024 ------- 0 6.0 0.5 14 198
h 0.2554 13 15 cbr 1024 ------- 0 13.0 0.12 14 199
+ 0.255425 13 15 cbr 1024 ------- 0 13.0 0.12 14 199
- 0.255425 13 15 cbr 1024 ------- 0 13.0 0.12 14 199
h 0.255551 1 15 cbr 1024 ------- 0 1.0 0.0 14 200
+ 0.255577 1 15 cbr 1024 ------- 0 1.0 0.0 14 200
h 0.255621 10 15 cbr 1024 ------- 0 10.0 0.9 15 201
+ 0.255646 10 15 cbr 1024 ------- 0 10.0 0.9 15 201
- 0.255654 7 15 cbr 1024 ------- 0 7.0 0.6 12 190
r 0.255674 15 0 cbr 1024 ------- 0 7.0 0.6 11 175
h 0.256154 2 15 cbr 1024 ------- 0 2.0 0.1 12 202
+ 0.25618 2 15 cbr 1024 ------- 0 2.0 0.1 12 202
h 0.256266 5 15 cbr 1024 ------- 0 5.0 0.4 15 203
+ 0.256292 5 15 cbr 1024 ------- 0 5.0 0.4 15 203
r 0.25653 15 0 cbr 1024 ------- 0 13.0 0.12 14 199
h 0.256817 14 15 cbr 1024 ------- 0 14.0 0.13 14 204
+ 0.256843 14 15 cbr 1024 ------- 0 14.0 0.13 14 204
h 0.257425 12 15 cbr 1024 ------- 0 12.0 0.11 14 205
+ 0.25745 12 15 cbr 1024 ------- 0 12.0 0.11 14 205
- 0.257525 7 15 cbr 1024 ------- 0 7.0 0.6 13 196
r 0.257545 15 0 cbr 1024 ------- 0 7.0 0.6 12 190
h 0.257728 11 15 cbr 1024 ------- 0 11.0 0.10 14 206
+ 0.257754 11 15 cbr 1024 ------- 0 11.0 0.10 14 206
- 0.257754 11 15 cbr 1024 ------- 0 11.0 0.10 14 206
h 0.257867 3 15 cbr 1024 ------- 0 3.0 0.2 13 207
+ 0.257893 3 15 cbr 1024 ------- 0 3.0 0.2 13 207
r 0.258385 15 0 cbr 1024 ------- 0 7.0 0.6 13 196
h 0.258495 1 15 cbr 1024 ------- 0 1.0 0.0 15 208
+ 0.25852 1 15 cbr 1024 ------- 0 1.0 0.0 15 208
h 0.258557 9 15 cbr 1024 ------- 0 9.0 0.8 14 209
+ 0.258582 9 15 cbr 1024 ------- 0 9.0 0.8 14 209
h 0.258809 8 15 cbr 1024 ------- 0 8.0 0.7 15 210
+ 0.258835 8 15 cbr 1024 ------- 0 8.0 0.7 15 210
h 0.25898 4 15 cbr 1024 ------- 0 4.0 0.3 16 211
+ 0.259006 4 15 cbr 1024 ------- 0 4.0 0.3 16 211
r 0.259297 15 0 cbr 1024 ------- 0 11.0 0.10 14 206
h 0.259366 6 15 cbr 1024 ------- 0 6.0 0.5 15 212
+ 0.259392 6 15 cbr 1024 ------- 0 6.0 0.5 15 212
h 0.259743 12 15 cbr 1024 ------- 0 12.0 0.11 15 213
+ 0.259768 12 15 cbr 1024 ------- 0 12.0 0.11 15 213
h 0.259797 10 15 cbr 1024 ------- 0 10.0 0.9 16 214
+ 0.259822 10 15 cbr 1024 ------- 0 10.0 0.9 16 214
h 0.260347 11 15 cbr 1024 ------- 0 11.0 0.10 15 215
+ 0.260372 11 15 cbr 1024 ------- 0 11.0 0.10 15 215
- 0.260372 11 15 cbr 1024 ------- 0 11.0 0.10 15 215
- 0.260394 2 15 cbr 1024 ------- 0 2.0 0.1 1 23
r 0.260414 15 0 cbr 1024 ------- 0 2.0 0.1 0 1
h 0.260528 2 15 cbr 1024 ------- 0 2.0 0.1 13 216
+ 0.260554 2 15 cbr 1024 ------- 0 2.0 0.1 13 216
h 0.260663 7 15 cbr 1024 ------- 0 7.0 0.6 14 217
+ 0.260689 7 15 cbr 1024 ------- 0 7.0 0.6 14 217
- 0.260689 7 15 cbr 1024 ------- 0 7.0 0.6 14 217
h 0.260814 5 15 cbr 1024 ------- 0 5.0 0.4 16 218
+ 0.26084 5 15 cbr 1024 ------- 0 5.0 0.4 16 218
r 0.261271 15 0 cbr 1024 ------- 0 11.0 0.10 15 215
h 0.261425 13 15 cbr 1024 ------- 0 13.0 0.12 15 219
+ 0.261451 13 15 cbr 1024 ------- 0 13.0 0.12 15 219
- 0.261451 13 15 cbr 1024 ------- 0 13.0 0.12 15 219
h 0.261782 4 15 cbr 1024 ------- 0 4.0 0.3 17 220
+ 0.261807 4 15 cbr 1024 ------- 0 4.0 0.3 17 220
h 0.262098 14 15 cbr 1024 ------- 0 14.0 0.13 15 221
+ 0.262124 14 15 cbr 1024 ------- 0 14.0 0.13 15 221
r 0.262199 15 0 cbr 1024 ------- 0 7.0 0.6 14 217
h 0.262226 3 15 cbr 1024 ------- 0 3.0 0.2 14 222
+ 0.262252 3 15 cbr 1024 ------- 0 3.0 0.2 14 222
h 0.262319 1 15 cbr 1024 ------- 0 1.0 0.0 16 223
+ 0.262344 1 15 cbr 1024 ------- 0 1.0 0.0 16 223