V -t * -v 1.0a5 -a 0
A -t * -n 1 -p 0 -o 0xffffffff -c 31 -a 1
A -t * -h 1 -m 2147483647 -s 0
c -t * -i 0 -n green
c -t * -i 3 -n yellow
n -t * -a 8 -s 8 -S UP -v circle -c black -i black
n -t * -a 4 -s 4 -S UP -v circle -c black -i black
n -t * -a 0 -s 0 -S UP -v circle -c black -i black
n -t * -a 5 -s 5 -S UP -v circle -c black -i black
n -t * -a 1 -s 1 -S UP -v circle -c black -i black
n -t * -a 6 -s 6 -S UP -v circle -c black -i black
n -t * -a 2 -s 2 -S UP -v circle -c black -i black
n -t * -a 7 -s 7 -S UP -v circle -c black -i black
n -t * -a 3 -s 3 -S UP -v circle -c black -i black
l -t * -s 0 -d 1 -S UP -r 2000000 -D 0.040000000000000001 -c black -o 
l -t * -s 1 -d 2 -S UP -r 2000000 -D 0.040000000000000001 -c black -o 
l -t * -s 2 -d 3 -S UP -r 2000000 -D 0.040000000000000001 -c black -o 
l -t * -s 3 -d 4 -S UP -r 2000000 -D 0.040000000000000001 -c black -o 
l -t * -s 4 -d 5 -S UP -r 2000000 -D 0.01 -c black -o 
l -t * -s 5 -d 6 -S UP -r 2000000 -D 0.01 -c black -o 
l -t * -s 6 -d 0 -S UP -r 2000000 -D 0.01 -c black -o 
l -t * -s 7 -d 1 -S UP -r 2000000 -D 0.02 -c black -o 
l -t * -s 7 -d 5 -S UP -r 2000000 -D 0.01 -c black -o 
l -t * -s 8 -d 5 -S UP -r 2000000 -D 0.01 -c black -o 
l -t * -s 8 -d 2 -S UP -r 2000000 -D 0.040000000000000001 -c black -o 
+ -t 0.2 -s 0 -d 1 -p cbr -e 1500 -c 0 -i 0 -a 0 -x {0.0 3.1 0 ------- null}
- -t 0.2 -s 0 -d 1 -p cbr -e 1500 -c 0 -i 0 -a 0 -x {0.0 3.1 0 ------- null}
h -t 0.2 -s 0 -d 1 -p cbr -e 1500 -c 0 -i 0 -a 0 -x {0.0 3.1 -1 ------- null}
+ -t 0.215 -s 0 -d 1 -p cbr -e 1500 -c 0 -i 1 -a 0 -x {0.0 3.1 1 ------- null}
- -t 0.215 -s 0 -d 1 -p cbr -e 1500 -c 0 -i 1 -a 0 -x {0.0 3.1 1 ------- null}
h -t 0.215 -s 0 -d 1 -p cbr -e 1500 -c 0 -i 1 -a 0 -x {0.0 3.1 -1 ------- null}
+ -t 0.23 -s 0 -d 1 -p cbr -e 1500 -c 0 -i 2 -a 0 -x {0.0 3.1 2 ------- null}
- -t 0.23 -s 0 -d 1 -p cbr -e 1500 -c 0 -i 2 -a 0 -x {0.0 3.1 2 ------- null}
h -t 0.23 -s 0 -d 1 -p cbr -e 1500 -c 0 -i 2 -a 0 -x {0.0 3.1 -1 ------- null}
+ -t 0.245 -s 0 -d 1 -p cbr -e 1500 -c 0 -i 3 -a 0 -x {0.0 3.1 3 ------- null}
- -t 0.245 -s 0 -d 1 -p cbr -e 1500 -c 0 -i 3 -a 0 -x {0.0 3.1 3 ------- null}
h -t 0.245 -s 0 -d 1 -p cbr -e 1500 -c 0 -i 3 -a 0 -x {0.0 3.1 -1 ------- null}
r -t 0.246 -s 0 -d 1 -p cbr -e 1500 -c 0 -i 0 -a 0 -x {0.0 3.1 0 ------- null}
+ -t 0.246 -s 1 -d 2 -p cbr -e 1500 -c 0 -i 0 -a 0 -x {0.0 3.1 0 ------- null}
- -t 0.246 -s 1 -d 2 -p cbr -e 1500 -c 0 -i 0 -a 0 -x {0.0 3.1 0 ------- null}
h -t 0.246 -s 1 -d 2 -p cbr -e 1500 -c 0 -i 0 -a 0 -x {0.0 3.1 -1 ------- null}
+ -t 0.26 -s 0 -d 1 -p cbr -e 1500 -c 0 -i 4 -a 0 -x {0.0 3.1 4 ------- null}
- -t 0.26 -s 0 -d 1 -p cbr -e 1500 -c 0 -i 4 -a 0 -x {0.0 3.1 4 ------- null}
h -t 0.26 -s 0 -d 1 -p cbr -e 1500 -c 0 -i 4 -a 0 -x {0.0 3.1 -1 ------- null}
r -t 0.261 -s 0 -d 1 -p cbr -e 1500 -c 0 -i 1 -a 0 -x {0.0 3.1 1 ------- null}
+ -t 0.261 -s 1 -d 2 -p cbr -e 1500 -c 0 -i 1 -a 0 -x {0.0 3.1 1 ------- null}
- -t 0.261 -s 1 -d 2 -p cbr -e 1500 -c 0 -i 1 -a 0 -x {0.0 3.1 1 ------- null}
h -t 0.261 -s 1 -d 2 -p cbr -e 1500 -c 0 -i 1 -a 0 -x {0.0 3.1 -1 ------- null}
+ -t 0.275 -s 0 -d 1 -p cbr -e 1500 -c 0 -i 5 -a 0 -x {0.0 3.1 5 ------- null}
- -t 0.275 -s 0 -d 1 -p cbr -e 1500 -c 0 -i 5 -a 0 -x {0.0 3.1 5 ------- null}
h -t 0.275 -s 0 -d 1 -p cbr -e 1500 -c 0 -i 5 -a 0 -x {0.0 3.1 -1 ------- null}
r -t 0.276 -s 0 -d 1 -p cbr -e 1500 -c 0 -i 2 -a 0 -x {0.0 3.1 2 ------- null}
+ -t 0.276 -s 1 -d 2 -p cbr -e 1500 -c 0 -i 2 -a 0 -x {0.0 3.1 2 ------- null}
- -t 0.276 -s 1 -d 2 -p cbr -e 1500 -c 0 -i 2 -a 0 -x {0.0 3.1 2 ------- null}
h -t 0.276 -s 1 -d 2 -p cbr -e 1500 -c 0 -i 2 -a 0 -x {0.0 3.1 -1 ------- null}
+ -t 0.29 -s 0 -d 1 -p cbr -e 1500 -c 0 -i 6 -a 0 -x {0.0 3.1 6 ------- null}
- -t 0.29 -s 0 -d 1 -p cbr -e 1500 -c 0 -i 6 -a 0 -x {0.0 3.1 6 ------- null}
h -t 0.29 -s 0 -d 1 -p cbr -e 1500 -c 0 -i 6 -a 0 -x {0.0 3.1 -1 ------- null}
r -t 0.291 -s 0 -d 1 -p cbr -e 1500 -c 0 -i 3 -a 0 -x {0.0 3.1 3 ------- null}
+ -t 0.291 -s 1 -d 2 -p cbr -e 1500 -c 0 -i 3 -a 0 -x {0.0 3.1 3 ------- null}
- -t 0.291 -s 1 -d 2 -p cbr -e 1500 -c 0 -i 3 -a 0 -x {0.0 3.1 3 ------- null}
h -t 0.291 -s 1 -d 2 -p cbr -e 1500 -c 0 -i 3 -a 0 -x {0.0 3.1 -1 ------- null}
r -t 0.292 -s 1 -d 2 -p cbr -e 1500 -c 0 -i 0 -a 0 -x {0.0 3.1 0 ------- null}
+ -t 0.292 -s 2 -d 3 -p cbr -e 1500 -c 0 -i 0 -a 0 -x {0.0 3.1 0 ------- null}
- -t 0.292 -s 2 -d 3 -p cbr -e 1500 -c 0 -i 0 -a 0 -x {0.0 3.1 0 ------- null}
h -t 0.292 -s 2 -d 3 -p cbr -e 1500 -c 0 -i 0 -a 0 -x {0.0 3.1 -1 ------- null}
+ -t 0.305 -s 0 -d 1 -p cbr -e 1500 -c 0 -i 7 -a 0 -x {0.0 3.1 7 ------- null}
- -t 0.305 -s 0 -d 1 -p cbr -e 1500 -c 0 -i 7 -a 0 -x {0.0 3.1 7 ------- null}
h -t 0.305 -s 0 -d 1 -p cbr -e 1500 -c 0 -i 7 -a 0 -x {0.0 3.1 -1 ------- null}
r -t 0.306 -s 0 -d 1 -p cbr -e 1500 -c 0 -i 4 -a 0 -x {0.0 3.1 4 ------- null}
+ -t 0.306 -s 1 -d 2 -p cbr -e 1500 -c 0 -i 4 -a 0 -x {0.0 3.1 4 ------- null}
- -t 0.306 -s 1 -d 2 -p cbr -e 1500 -c 0 -i 4 -a 0 -x {0.0 3.1 4 ------- null}
h -t 0.306 -s 1 -d 2 -p cbr -e 1500 -c 0 -i 4 -a 0 -x {0.0 3.1 -1 ------- null}
r -t 0.307 -s 1 -d 2 -p cbr -e 1500 -c 0 -i 1 -a 0 -x {0.0 3.1 1 ------- null}
+ -t 0.307 -s 2 -d 3 -p cbr -e 1500 -c 0 -i 1 -a 0 -x {0.0 3.1 1 ------- null}
- -t 0.307 -s 2 -d 3 -p cbr -e 1500 -c 0 -i 1 -a 0 -x {0.0 3.1 1 ------- null}
h -t 0.307 -s 2 -d 3 -p cbr -e 1500 -c 0 -i 1 -a 0 -x {0.0 3.1 -1 ------- null}
+ -t 0.32 -s 0 -d 1 -p cbr -e 1500 -c 0 -i 8 -a 0 -x {0.0 3.1 8 ------- null}
- -t 0.32 -s 0 -d 1 -p cbr -e 1500 -c 0 -i 8 -a 0 -x {0.0 3.1 8 ------- null}
h -t 0.32 -s 0 -d 1 -p cbr -e 1500 -c 0 -i 8 -a 0 -x {0.0 3.1 -1 ------- null}
r -t 0.321 -s 0 -d 1 -p cbr -e 1500 -c 0 -i 5 -a 0 -x {0.0 3.1 5 ------- null}
+ -t 0.321 -s 1 -d 2 -p cbr -e 1500 -c 0 -i 5 -a 0 -x {0.0 3.1 5 ------- null}
- -t 0.321 -s 1 -d 2 -p cbr -e 1500 -c 0 -i 5 -a 0 -x {0.0 3.1 5 ------- null}
h -t 0.321 -s 1 -d 2 -p cbr -e 1500 -c 0 -i 5 -a 0 -x {0.0 3.1 -1 ------- null}
r -t 0.322 -s 1 -d 2 -p cbr -e 1500 -c 0 -i 2 -a 0 -x {0.0 3.1 2 ------- null}
+ -t 0.322 -s 2 -d 3 -p cbr -e 1500 -c 0 -i 2 -a 0 -x {0.0 3.1 2 ------- null}
- -t 0.322 -s 2 -d 3 -p cbr -e 1500 -c 0 -i 2 -a 0 -x {0.0 3.1 2 ------- null}
h -t 0.322 -s 2 -d 3 -p cbr -e 1500 -c 0 -i 2 -a 0 -x {0.0 3.1 -1 ------- null}
+ -t 0.335 -s 0 -d 1 -p cbr -e 1500 -c 0 -i 9 -a 0 -x {0.0 3.1 9 ------- null}
- -t 0.335 -s 0 -d 1 -p cbr -e 1500 -c 0 -i 9 -a 0 -x {0.0 3.1 9 ------- null}
h -t 0.335 -s 0 -d 1 -p cbr -e 1500 -c 0 -i 9 -a 0 -x {0.0 3.1 -1 ------- null}
r -t 0.336 -s 0 -d 1 -p cbr -e 1500 -c 0 -i 6 -a 0 -x {0.0 3.1 6 ------- null}
+ -t 0.336 -s 1 -d 2 -p cbr -e 1500 -c 0 -i 6 -a 0 -x {0.0 3.1 6 ------- null}
- -t 0.336 -s 1 -d 2 -p cbr -e 1500 -c 0 -i 6 -a 0 -x {0.0 3.1 6 ------- null}
h -t 0.336 -s 1 -d 2 -p cbr -e 1500 -c 0 -i 6 -a 0 -x {0.0 3.1 -1 ------- null}
r -t 0.337 -s 1 -d 2 -p cbr -e 1500 -c 0 -i 3 -a 0 -x {0.0 3.1 3 ------- null}
+ -t 0.337 -s 2 -d 3 -p cbr -e 1500 -c 0 -i 3 -a 0 -x {0.0 3.1 3 ------- null}
- -t 0.337 -s 2 -d 3 -p cbr -e 1500 -c 0 -i 3 -a 0 -x {0.0 3.1 3 ------- null}
h -t 0.337 -s 2 -d 3 -p cbr -e 1500 -c 0 -i 3 -a 0 -x {0.0 3.1 -1 ------- null}
r -t 0.338 -s 2 -d 3 -p cbr -e 1500 -c 0 -i 0 -a 0 -x {0.0 3.1 0 ------- null}
+ -t 0.35 -s 0 -d 1 -p cbr -e 1500 -c 0 -i 10 -a 0 -x {0.0 3.1 10 ------- null}
- -t 0.35 -s 0 -d 1 -p cbr -e 1500 -c 0 -i 10 -a 0 -x {0.0 3.1 10 ------- null}
h -t 0.35 -s 0 -d 1 -p cbr -e 1500 -c 0 -i 10 -a 0 -x {0.0 3.1 -1 ------- null}
r -t 0.351 -s 0 -d 1 -p cbr -e 1500 -c 0 -i 7 -a 0 -x {0.0 3.1 7 ------- null}
+ -t 0.351 -s 1 -d 2 -p cbr -e 1500 -c 0 -i 7 -a 0 -x {0.0 3.1 7 ------- null}
- -t 0.351 -s 1 -d 2 -p cbr -e 1500 -c 0 -i 7 -a 0 -x {0.0 3.1 7 ------- null}
h -t 0.351 -s 1 -d 2 -p cbr -e 1500 -c 0 -i 7 -a 0 -x {0.0 3.1 -1 ------- null}
r -t 0.352 -s 1 -d 2 -p cbr -e 1500 -c 0 -i 4 -a 0 -x {0.0 3.1 4 ------- null}
+ -t 0.352 -s 2 -d 3 -p cbr -e 1500 -c 0 -i 4 -a 0 -x {0.0 3.1 4 ------- null}
- -t 0.352 -s 2 -d 3 -p cbr -e 1500 -c 0 -i 4 -a 0 -x {0.0 3.1 4 ------- null}
h -t 0.352 -s 2 -d 3 -p cbr -e 1500 -c 0 -i 4 -a 0 -x {0.0 3.1 -1 ------- null}
r -t 0.353 -s 2 -d 3 -p cbr -e 1500 -c 0 -i 1 -a 0 -x {0.0 3.1 1 ------- null}
+ -t 0.365 -s 0 -d 1 -p cbr -e 1500 -c 0 -i 11 -a 0 -x {0.0 3.1 11 ------- null}
- -t 0.365 -s 0 -d 1 -p cbr -e 1500 -c 0 -i 11 -a 0 -x {0.0 3.1 11 ------- null}
h -t 0.365 -s 0 -d 1 -p cbr -e 1500 -c 0 -i 11 -a 0 -x {0.0 3.1 -1 ------- null}
r -t 0.366 -s 0 -d 1 -p cbr -e 1500 -c 0 -i 8 -a 0 -x {0.0 3.1 8 ------- null}
+ -t 0.366 -s 1 -d 2 -p cbr -e 1500 -c 0 -i 8 -a 0 -x {0.0 3.1 8 ------- null}
- -t 0.366 -s 1 -d 2 -p cbr -e 1500 -c 0 -i 8 -a 0 -x {0.0 3.1 8 ------- null}
h -t 0.366 -s 1 -d 2 -p cbr -e 1500 -c 0 -i 8 -a 0 -x {0.0 3.1 -1 ------- null}
r -t 0.367 -s 1 -d 2 -p cbr -e 1500 -c 0 -i 5 -a 0 -x {0.0 3.1 5 ------- null}
+ -t 0.367 -s 2 -d 3 -p cbr -e 1500 -c 0 -i 5 -a 0 -x {0.0 3.1 5 ------- null}
- -t 0.367 -s 2 -d 3 -p cbr -e 1500 -c 0 -i 5 -a 0 -x {0.0 3.1 5 ------- null}
h -t 0.367 -s 2 -d 3 -p cbr -e 1500 -c 0 -i 5 -a 0 -x {0.0 3.1 -1 ------- null}
r -t 0.368 -s 2 -d 3 -p cbr -e 1500 -c 0 -i 2 -a 0 -x {0.0 3.1 2 ------- null}
+ -t 0.38 -s 0 -d 1 -p cbr -e 1500 -c 0 -i 12 -a 0 -x {0.0 3.1 12 ------- null}
- -t 0.38 -s 0 -d 1 -p cbr -e 1500 -c 0 -i 12 -a 0 -x {0.0 3.1 12 ------- null}
h -t 0.38 -s 0 -d 1 -p cbr -e 1500 -c 0 -i 12 -a 0 -x {0.0 3.1 -1 ------- null}
r -t 0.381 -s 0 -d 1 -p cbr -e 1500 -c 0 -i 9 -a 0 -x {0.0 3.1 9 ------- null}
+ -t 0.381 -s 1 -d 2 -p cbr -e 1500 -c 0 -i 9 -a 0 -x {0.0 3.1 9 ------- null}
- -t 0.381 -s 1 -d 2 -p cbr -e 1500 -c 0 -i 9 -a 0 -x {0.0 3.1 9 ------- null}
h -t 0.381 -s 1 -d 2 -p cbr -e 1500 -c 0 -i 9 -a 0 -x {0.0 3.1 -1 ------- null}
r -t 0.382 -s 1 -d 2 -p cbr -e 1500 -c 0 -i 6 -a 0 -x {0.0 3.1 6 ------- null}
+ -t 0.382 -s 2 -d 3 -p cbr -e 1500 -c 0 -i 6 -a 0 -x {0.0 3.1 6 ------- null}
- -t 0.382 -s 2 -d 3 -p cbr -e 1500 -c 0 -i 6 -a 0 -x {0.0 3.1 6 ------- null}
h -t 0.382 -s 2 -d 3 -p cbr -e 1500 -c 0 -i 6 -a 0 -x {0.0 3.1 -1 ------- null}
r -t 0.383 -s 2 -d 3 -p cbr -e 1500 -c 0 -i 3 -a 0 -x {0.0 3.1 3 ------- null}
+ -t 0.395 -s 0 -d 1 -p cbr -e 1500 -c 0 -i 13 -a 0 -x {0.0 3.1 13 ------- null}
- -t 0.395 -s 0 -d 1 -p cbr -e 1500 -c 0 -i 13 -a 0 -x {0.0 3.1 13 ------- null}
h -t 0.395 -s 0 -d 1 -p cbr -e 1500 -c 0 -i 13 -a 0 -x {0.0 3.1 -1 ------- null}
r -t 0.396 -s 0 -d 1 -p cbr -e 1500 -c 0 -i 10 -a 0 -x {0.0 3.1 10 ------- null}
+ -t 0.396 -s 1 -d 2 -p cbr -e 1500 -c 0 -i 10 -a 0 -x {0.0 3.1 10 ------- null}
- -t 0.396 -s 1 -d 2 -p cbr -e 1500 -c 0 -i 10 -a 0 -x {0.0 3.1 10 ------- null}
h -t 0.396 -s 1 -d 2 -p cbr -e 1500 -c 0 -i 10 -a 0 -x {0.0 3.1 -1 ------- null}
r -t 0.397 -s 1 -d 2 -p cbr -e 1500 -c 0 -i 7 -a 0 -x {0.0 3.1 7 ------- null}
+ -t 0.397 -s 2 -d 3 -p cbr -e 1500 -c 0 -i 7 -a 0 -x {0.0 3.1 7 ------- null}
- -t 0.397 -s 2 -d 3 -p cbr -e 1500 -c 0 -i 7 -a 0 -x {0.0 3.1 7 ------- null}
h -t 0.397 -s 2 -d 3 -p cbr -e 1500 -c 0 -i 7 -a 0 -x {0.0 3.1 -1 ------- null}
r -t 0.398 -s 2 -d 3 -p cbr -e 1500 -c 0 -i 4 -a 0 -x {0.0 3.1 4 ------- null}
+ -t 0.41 -s 0 -d 1 -p cbr -e 1500 -c 0 -i 14 -a 0 -x {0.0 3.1 14 ------- null}
- -t 0.41 -s 0 -d 1 -p cbr -e 1500 -c 0 -i 14 -a 0 -x {0.0 3.1 14 ------- null}
h -t 0.41 -s 0 -d 1 -p cbr -e 1500 -c 0 -i 14 -a 0 -x {0.0 3.1 -1 ------- null}
r -t 0.411 -s 0 -d 1 -p cbr -e 1500 -c 0 -i 11 -a 0 -x {0.0 3.1 11 ------- null}
+ -t 0.411 -s 1 -d 2 -p cbr -e 1500 -c 0 -i 11 -a 0 -x {0.0 3.1 11 ------- null}
- -t 0.411 -s 1 -d 2 -p cbr -e 1500 -c 0 -i 11 -a 0 -x {0.0 3.1 11 ------- null}
h -t 0.411 -s 1 -d 2 -p cbr -e 1500 -c 0 -i 11 -a 0 -x {0.0 3.1 -1 ------- null}
r -t 0.412 -s 1 -d 2 -p cbr -e 1500 -c 0 -i 8 -a 0 -x {0.0 3.1 8 ------- null}
+ -t 0.412 -s 2 -d 3 -p cbr -e 1500 -c 0 -i 8 -a 0 -x {0.0 3.1 8 ------- null}
- -t 0.412 -s 2 -d 3 -p cbr -e 1500 -c 0 -i 8 -a 0 -x {0.0 3.1 8 ------- null}
h -t 0.412 -s 2 -d 3 -p cbr -e 1500 -c 0 -i 8 -a 0 -x {0.0 3.1 -1 ------- null}
r -t 0.413 -s 2 -d 3 -p cbr -e 1500 -c 0 -i 5 -a 0 -x {0.0 3.1 5 ------- null}
+ -t 0.425 -s 0 -d 1 -p cbr -e 1500 -c 0 -i 15 -a 0 -x {0.0 3.1 15 ------- null}
- -t 0.425 -s 0 -d 1 -p cbr -e 1500 -c 0 -i 15 -a 0 -x {0.0 3.1 15 ------- null}
h -t 0.425 -s 0 -d 1 -p cbr -e 1500 -c 0 -i 15 -a 0 -x {0.0 3.1 -1 ------- null}
r -t 0.426 -s 0 -d 1 -p cbr -e 1500 -c 0 -i 12 -a 0 -x {0.0 3.1 12 ------- null}
+ -t 0.426 -s 1 -d 2 -p cbr -e 1500 -c 0 -i 12 -a 0 -x {0.0 3.1 12 ------- null}
- -t 0.426 -s 1 -d 2 -p cbr -e 1500 -c 0 -i 12 -a 0 -x {0.0 3.1 12 ------- null}
h -t 0.426 -s 1 -d 2 -p cbr -e 1500 -c 0 -i 12 -a 0 -x {0.0 3.1 -1 ------- null}
r -t 0.427 -s 1 -d 2 -p cbr -e 1500 -c 0 -i 9 -a 0 -x {0.0 3.1 9 ------- null}
+ -t 0.427 -s 2 -d 3 -p cbr -e 1500 -c 0 -i 9 -a 0 -x {0.0 3.1 9 ------- null}
- -t 0.427 -s 2 -d 3 -p cbr -e 1500 -c 0 -i 9 -a 0 -x {0.0 3.1 9 ------- null}
h -t 0.427 -s 2 -d 3 -p cbr -e 1500 -c 0 -i 9 -a 0 -x {0.0 3.1 -1 ------- null}
r -t 0.428 -s 2 -d 3 -p cbr -e 1500 -c 0 -i 6 -a 0 -x {0.0 3.1 6 ------- null}
+ -t 0.44 -s 0 -d 1 -p cbr -e 1500 -c 0 -i 16 -a 0 -x {0.0 3.1 16 ------- null}
- -t 0.44 -s 0 -d 1 -p cbr -e 1500 -c 0 -i 16 -a 0 -x {0.0 3.1 16 ------- null}
h -t 0.44 -s 0 -d 1 -p cbr -e 1500 -c 0 -i 16 -a 0 -x {0.0 3.1 -1 ------- null}
r -t 0.441 -s 0 -d 1 -p cbr -e 1500 -c 0 -i 13 -a 0 -x {0.0 3.1 13 ------- null}
+ -t 0.441 -s 1 -d 2 -p cbr -e 1500 -c 0 -i 13 -a 0 -x {0.0 3.1 13 ------- null}
- -t 0.441 -s 1 -d 2 -p cbr -e 1500 -c 0 -i 13 -a 0 -x {0.0 3.1 13 ------- null}
h -t 0.441 -s 1 -d 2 -p cbr -e 1500 -c 0 -i 13 -a 0 -x {0.0 3.1 -1 ------- null}
r -t 0.442 -s 1 -d 2 -p cbr -e 1500 -c 0 -i 10 -a 0 -x {0.0 3.1 10 ------- null}
+ -t 0.442 -s 2 -d 3 -p cbr -e 1500 -c 0 -i 10 -a 0 -x {0.0 3.1 10 ------- null}
- -t 0.442 -s 2 -d 3 -p cbr -e 1500 -c 0 -i 10 -a 0 -x {0.0 3.1 10 ------- null}
h -t 0.442 -s 2 -d 3 -p cbr -e 1500 -c 0 -i 10 -a 0 -x {0.0 3.1 -1 ------- null}
r -t 0.443 -s 2 -d 3 -p cbr -e 1500 -c 0 -i 7 -a 0 -x {0.0 3.1 7 ------- null}
+ -t 0.455 -s 0 -d 1 -p cbr -e 1500 -c 0 -i 17 -a 0 -x {0.0 3.1 17 ------- null}
- -t 0.455 -s 0 -d 1 -p cbr -e 1500 -c 0 -i 17 -a 0 -x {0.0 3.1 17 ------- null}
h -t 0.455 -s 0 -d 1 -p cbr -e 1500 -c 0 -i 17 -a 0 -x {0.0 3.1 -1 ------- null}
r -t 0.456 -s 0 -d 1 -p cbr -e 1500 -c 0 -i 14 -a 0 -x {0.0 3.1 14 ------- null}
+ -t 0.456 -s 1 -d 2 -p cbr -e 1500 -c 0 -i 14 -a 0 -x {0.0 3.1 14 ------- null}
- -t 0.456 -s 1 -d 2 -p cbr -e 1500 -c 0 -i 14 -a 0 -x {0.0 3.1 14 ------- null}
h -t 0.456 -s 1 -d 2 -p cbr -e 1500 -c 0 -i 14 -a 0 -x {0.0 3.1 -1 ------- null}
r -t 0.457 -s 1 -d 2 -p cbr -e 1500 -c 0 -i 11 -a 0 -x {0.0 3.1 11 ------- null}
+ -t 0.457 -s 2 -d 3 -p cbr -e 1500 -c 0 -i 11 -a 0 -x {0.0 3.1 11 ------- null}
- -t 0.457 -s 2 -d 3 -p cbr -e 1500 -c 0 -i 11 -a 0 -x {0.0 3.1 11 ------- null}
h -t 0.457 -s 2 -d 3 -p cbr -e 1500 -c 0 -i 11 -a 0 -x {0.0 3.1 -1 ------- null}
r -t 0.458 -s 2 -d 3 -p cbr -e 1500 -c 0 -i 8 -a 0 -x {0.0 3.1 8 ------- null}
+ -t 0.47 -s 0 -d 1 -p cbr -e 1500 -c 0 -i 18 -a 0 -x {0.0 3.1 18 ------- null}
- -t 0.47 -s 0 -d 1 -p cbr -e 1500 -c 0 -i 18 -a 0 -x {0.0 3.1 18 ------- null}
h -t 0.47 -s 0 -d 1 -p cbr -e 1500 -c 0 -i 18 -a 0 -x {0.0 3.1 -1 ------- null}
r -t 0.471 -s 0 -d 1 -p cbr -e 1500 -c 0 -i 15 -a 0 -x {0.0 3.1 15 ------- null}
+ -t 0.471 -s 1 -d 2 -p cbr -e 1500 -c 0 -i 15 -a 0 -x {0.0 3.1 15 ------- null}
- -t 0.471 -s 1 -d 2 -p cbr -e 1500 -c 0 -i 15 -a 0 -x {0.0 3.1 15 ------- null}
h -t 0.471 -s 1 -d 2 -p cbr -e 1500 -c 0 -i 15 -a 0 -x {0.0 3.1 -1 ------- null}
r -t 0.472 -s 1 -d 2 -p cbr -e 1500 -c 0 -i 12 -a 0 -x {0.0 3.1 12 ------- null}
+ -t 0.472 -s 2 -d 3 -p cbr -e 1500 -c 0 -i 12 -a 0 -x {0.0 3.1 12 ------- null}
- -t 0.472 -s 2 -d 3 -p cbr -e 1500 -c 0 -i 12 -a 0 -x {0.0 3.1 12 ------- null}
h -t 0.472 -s 2 -d 3 -p cbr -e 1500 -c 0 -i 12 -a 0 -x {0.0 3.1 -1 ------- null}
r -t 0.473 -s 2 -d 3 -p cbr -e 1500 -c 0 -i 9 -a 0 -x {0.0 3.1 9 ------- null}
+ -t 0.485 -s 0 -d 1 -p cbr -e 1500 -c 0 -i 19 -a 0 -x {0.0 3.1 19 ------- null}
- -t 0.485 -s 0 -d 1 -p cbr -e 1500 -c 0 -i 19 -a 0 -x {0.0 3.1 19 ------- null}
h -t 0.485 -s 0 -d 1 -p cbr -e 1500 -c 0 -i 19 -a 0 -x {0.0 3.1 -1 ------- null}
r -t 0.486 -s 0 -d 1 -p cbr -e 1500 -c 0 -i 16 -a 0 -x {0.0 3.1 16 ------- null}
+ -t 0.486 -s 1 -d 2 -p cbr -e 1500 -c 0 -i 16 -a 0 -x {0.0 3.1 16 ------- null}
- -t 0.486 -s 1 -d 2 -p cbr -e 1500 -c 0 -i 16 -a 0 -x {0.0 3.1 16 ------- null}
h -t 0.486 -s 1 -d 2 -p cbr -e 1500 -c 0 -i 16 -a 0 -x {0.0 3.1 -1 ------- null}
r -t 0.487 -s 1 -d 2 -p cbr -e 1500 -c 0 -i 13 -a 0 -x {0.0 3.1 13 ------- null}
+ -t 0.487 -s 2 -d 3 -p cbr -e 1500 -c 0 -i 13 -a 0 -x {0.0 3.1 13 ------- null}
- -t 0.487 -s 2 -d 3 -p cbr -e 1500 -c 0 -i 13 -a 0 -x {0.0 3.1 13 ------- null}
h -t 0.487 -s 2 -d 3 -p cbr -e 1500 -c 0 -i 13 -a 0 -x {0.0 3.1 -1 ------- null}
r -t 0.488 -s 2 -d 3 -p cbr -e 1500 -c 0 -i 10 -a 0 -x {0.0 3.1 10 ------- null}
+ -t 0.5 -s 0 -d 1 -p cbr -e 1500 -c 0 -i 20 -a 0 -x {0.0 3.1 20 ------- null}
- -t 0.5 -s 0 -d 1 -p cbr -e 1500 -c 0 -i 20 -a 0 -x {0.0 3.1 20 ------- null}
h -t 0.5 -s 0 -d 1 -p cbr -e 1500 -c 0 -i 20 -a 0 -x {0.0 3.1 -1 ------- null}
r -t 0.501 -s 0 -d 1 -p cbr -e 1500 -c 0 -i 17 -a 0 -x {0.0 3.1 17 ------- null}
+ -t 0.501 -s 1 -d 2 -p cbr -e 1500 -c 0 -i 17 -a 0 -x {0.0 3.1 17 ------- null}
- -t 0.501 -s 1 -d 2 -p cbr -e 1500 -c 0 -i 17 -a 0 -x {0.0 3.1 17 ------- null}
h -t 0.501 -s 1 -d 2 -p cbr -e 1500 -c 0 -i 17 -a 0 -x {0.0 3.1 -1 ------- null}
r -t 0.502 -s 1 -d 2 -p cbr -e 1500 -c 0 -i 14 -a 0 -x {0.0 3.1 14 ------- null}
+ -t 0.502 -s 2 -d 3 -p cbr -e 1500 -c 0 -i 14 -a 0 -x {0.0 3.1 14 ------- null}
- -t 0.502 -s 2 -d 3 -p cbr -e 1500 -c 0 -i 14 -a 0 -x {0.0 3.1 14 ------- null}
h -t 0.502 -s 2 -d 3 -p cbr -e 1500 -c 0 -i 14 -a 0 -x {0.0 3.1 -1 ------- null}
r -t 0.503 -s 2 -d 3 -p cbr -e 1500 -c 0 -i 11 -a 0 -x {0.0 3.1 11 ------- null}
+ -t 0.515 -s 0 -d 1 -p cbr -e 1500 -c 0 -i 21 -a 0 -x {0.0 3.1 21 ------- null}
- -t 0.515 -s 0 -d 1 -p cbr -e 1500 -c 0 -i 21 -a 0 -x {0.0 3.1 21 ------- null}
h -t 0.515 -s 0 -d 1 -p cbr -e 1500 -c 0 -i 21 -a 0 -x {0.0 3.1 -1 ------- null}
r -t 0.516 -s 0 -d 1 -p cbr -e 1500 -c 0 -i 18 -a 0 -x {0.0 3.1 18 ------- null}
+ -t 0.516 -s 1 -d 2 -p cbr -e 1500 -c 0 -i 18 -a 0 -x {0.0 3.1 18 ------- null}
- -t 0.516 -s 1 -d 2 -p cbr -e 1500 -c 0 -i 18 -a 0 -x {0.0 3.1 18 ------- null}
h -t 0.516 -s 1 -d 2 -p cbr -e 1500 -c 0 -i 18 -a 0 -x {0.0 3.1 -1 ------- null}
r -t 0.517 -s 1 -d 2 -p cbr -e 1500 -c 0 -i 15 -a 0 -x {0.0 3.1 15 ------- null}
+ -t 0.517 -s 2 -d 3 -p cbr -e 1500 -c 0 -i 15 -a 0 -x {0.0 3.1 15 ------- null}
- -t 0.517 -s 2 -d 3 -p cbr -e 1500 -c 0 -i 15 -a 0 -x {0.0 3.1 15 ------- null}
h -t 0.517 -s 2 -d 3 -p cbr -e 1500 -c 0 -i 15 -a 0 -x {0.0 3.1 -1 ------- null}
r -t 0.518 -s 2 -d 3 -p cbr -e 1500 -c 0 -i 12 -a 0 -x {0.0 3.1 12 ------- null}
+ -t 0.53 -s 0 -d 1 -p cbr -e 1500 -c 0 -i 22 -a 0 -x {0.0 3.1 22 ------- null}
- -t 0.53 -s 0 -d 1 -p cbr -e 1500 -c 0 -i 22 -a 0 -x {0.0 3.1 22 ------- null}
h -t 0.53 -s 0 -d 1 -p cbr -e 1500 -c 0 -i 22 -a 0 -x {0.0 3.1 -1 ------- null}
r -t 0.531 -s 0 -d 1 -p cbr -e 1500 -c 0 -i 19 -a 0 -x {0.0 3.1 19 ------- null}
+ -t 0.531 -s 1 -d 2 -p cbr -e 1500 -c 0 -i 19 -a 0 -x {0.0 3.1 19 ------- null}
- -t 0.531 -s 1 -d 2 -p cbr -e 1500 -c 0 -i 19 -a 0 -x {0.0 3.1 19 ------- null}
h -t 0.531 -s 1 -d 2 -p cbr -e 1500 -c 0 -i 19 -a 0 -x {0.0 3.1 -1 ------- null}
r -t 0.532 -s 1 -d 2 -p cbr -e 1500 -c 0 -i 16 -a 0 -x {0.0 3.1 16 ------- null}
+ -t 0.532 -s 2 -d 3 -p cbr -e 1500 -c 0 -i 16 -a 0 -x {0.0 3.1 16 ------- null}
- -t 0.532 -s 2 -d 3 -p cbr -e 1500 -c 0 -i 16 -a 0 -x {0.0 3.1 16 ------- null}
h -t 0.532 -s 2 -d 3 -p cbr -e 1500 -c 0 -i 16 -a 0 -x {0.0 3.1 -1 ------- null}
r -t 0.533 -s 2 -d 3 -p cbr -e 1500 -c 0 -i 13 -a 0 -x {0.0 3.1 13 ------- null}
+ -t 0.545 -s 0 -d 1 -p cbr -e 1500 -c 0 -i 23 -a 0 -x {0.0 3.1 23 ------- null}
- -t 0.545 -s 0 -d 1 -p cbr -e 1500 -c 0 -i 23 -a 0 -x {0.0 3.1 23 ------- null}
h -t 0.545 -s 0 -d 1 -p cbr -e 1500 -c 0 -i 23 -a 0 -x {0.0 3.1 -1 ------- null}
r -t 0.546 -s 0 -d 1 -p cbr -e 1500 -c 0 -i 20 -a 0 -x {0.0 3.1 20 ------- null}
+ -t 0.546 -s 1 -d 2 -p cbr -e 1500 -c 0 -i 20 -a 0 -x {0.0 3.1 20 ------- null}
- -t 0.546 -s 1 -d 2 -p cbr -e 1500 -c 0 -i 20 -a 0 -x {0.0 3.1 20 ------- null}
h -t 0.546 -s 1 -d 2 -p cbr -e 1500 -c 0 -i 20 -a 0 -x {0.0 3.1 -1 ------- null}
r -t 0.547 -s 1 -d 2 -p cbr -e 1500 -c 0 -i 17 -a 0 -x {0.0 3.1 17 ------- null}
+ -t 0.547 -s 2 -d 3 -p cbr -e 1500 -c 0 -i 17 -a 0 -x {0.0 3.1 17 ------- null}
- -t 0.547 -s 2 -d 3 -p cbr -e 1500 -c 0 -i 17 -a 0 -x {0.0 3.1 17 ------- null}
h -t 0.547 -s 2 -d 3 -p cbr -e 1500 -c 0 -i 17 -a 0 -x {0.0 3.1 -1 ------- null}
r -t 0.548 -s 2 -d 3 -p cbr -e 1500 -c 0 -i 14 -a 0 -x {0.0 3.1 14 ------- null}
+ -t 0.56 -s 0 -d 1 -p cbr -e 1500 -c 0 -i 24 -a 0 -x {0.0 3.1 24 ------- null}
- -t 0.56 -s 0 -d 1 -p cbr -e 1500 -c 0 -i 24 -a 0 -x {0.0 3.1 24 ------- null}
h -t 0.56 -s 0 -d 1 -p cbr -e 1500 -c 0 -i 24 -a 0 -x {0.0 3.1 -1 ------- null}
r -t 0.561 -s 0 -d 1 -p cbr -e 1500 -c 0 -i 21 -a 0 -x {0.0 3.1 21 ------- null}
+ -t 0.561 -s 1 -d 2 -p cbr -e 1500 -c 0 -i 21 -a 0 -x {0.0 3.1 21 ------- null}
- -t 0.561 -s 1 -d 2 -p cbr -e 1500 -c 0 -i 21 -a 0 -x {0.0 3.1 21 ------- null}
h -t 0.561 -s 1 -d 2 -p cbr -e 1500 -c 0 -i 21 -a 0 -x {0.0 3.1 -1 ------- null}
r -t 0.562 -s 1 -d 2 -p cbr -e 1500 -c 0 -i 18 -a 0 -x {0.0 3.1 18 ------- null}
+ -t 0.562 -s 2 -d 3 -p cbr -e 1500 -c 0 -i 18 -a 0 -x {0.0 3.1 18 ------- null}
- -t 0.562 -s 2 -d 3 -p cbr -e 1500 -c 0 -i 18 -a 0 -x {0.0 3.1 18 ------- null}
h -t 0.562 -s 2 -d 3 -p cbr -e 1500 -c 0 -i 18 -a 0 -x {0.0 3.1 -1 ------- null}
r -t 0.563 -s 2 -d 3 -p cbr -e 1500 -c 0 -i 15 -a 0 -x {0.0 3.1 15 ------- null}
+ -t 0.575 -s 0 -d 1 -p cbr -e 1500 -c 0 -i 25 -a 0 -x {0.0 3.1 25 ------- null}
- -t 0.575 -s 0 -d 1 -p cbr -e 1500 -c 0 -i 25 -a 0 -x {0.0 3.1 25 ------- null}
h -t 0.575 -s 0 -d 1 -p cbr -e 1500 -c 0 -i 25 -a 0 -x {0.0 3.1 -1 ------- null}
r -t 0.576 -s 0 -d 1 -p cbr -e 1500 -c 0 -i 22 -a 0 -x {0.0 3.1 22 ------- null}
+ -t 0.576 -s 1 -d 2 -p cbr -e 1500 -c 0 -i 22 -a 0 -x {0.0 3.1 22 ------- null}
- -t 0.576 -s 1 -d 2 -p cbr -e 1500 -c 0 -i 22 -a 0 -x {0.0 3.1 22 ------- null}
h -t 0.576 -s 1 -d 2 -p cbr -e 1500 -c 0 -i 22 -a 0 -x {0.0 3.1 -1 ------- null}
r -t 0.577 -s 1 -d 2 -p cbr -e 1500 -c 0 -i 19 -a 0 -x {0.0 3.1 19 ------- null}
+ -t 0.577 -s 2 -d 3 -p cbr -e 1500 -c 0 -i 19 -a 0 -x {0.0 3.1 19 ------- null}
- -t 0.577 -s 2 -d 3 -p cbr -e 1500 -c 0 -i 19 -a 0 -x {0.0 3.1 19 ------- null}
h -t 0.577 -s 2 -d 3 -p cbr -e 1500 -c 0 -i 19 -a 0 -x {0.0 3.1 -1 ------- null}
r -t 0.578 -s 2 -d 3 -p cbr -e 1500 -c 0 -i 16 -a 0 -x {0.0 3.1 16 ------- null}
+ -t 0.59 -s 0 -d 1 -p cbr -e 1500 -c 0 -i 26 -a 0 -x {0.0 3.1 26 ------- null}
- -t 0.59 -s 0 -d 1 -p cbr -e 1500 -c 0 -i 26 -a 0 -x {0.0 3.1 26 ------- null}
h -t 0.59 -s 0 -d 1 -p cbr -e 1500 -c 0 -i 26 -a 0 -x {0.0 3.1 -1 ------- null}
r -t 0.591 -s 0 -d 1 -p cbr -e 1500 -c 0 -i 23 -a 0 -x {0.0 3.1 23 ------- null}
+ -t 0.591 -s 1 -d 2 -p cbr -e 1500 -c 0 -i 23 -a 0 -x {0.0 3.1 23 ------- null}
- -t 0.591 -s 1 -d 2 -p cbr -e 1500 -c 0 -i 23 -a 0 -x {0.0 3.1 23 ------- null}
h -t 0.591 -s 1 -d 2 -p cbr -e 1500 -c 0 -i 23 -a 0 -x {0.0 3.1 -1 ------- null}
r -t 0.592 -s 1 -d 2 -p cbr -e 1500 -c 0 -i 20 -a 0 -x {0.0 3.1 20 ------- null}
+ -t 0.592 -s 2 -d 3 -p cbr -e 1500 -c 0 -i 20 -a 0 -x {0.0 3.1 20 ------- null}
- -t 0.592 -s 2 -d 3 -p cbr -e 1500 -c 0 -i 20 -a 0 -x {0.0 3.1 20 ------- null}
h -t 0.592 -s 2 -d 3 -p cbr -e 1500 -c 0 -i 20 -a 0 -x {0.0 3.1 -1 ------- null}
r -t 0.593 -s 2 -d 3 -p cbr -e 1500 -c 0 -i 17 -a 0 -x {0.0 3.1 17 ------- null}
+ -t 0.605 -s 0 -d 1 -p cbr -e 1500 -c 0 -i 27 -a 0 -x {0.0 3.1 27 ------- null}
- -t 0.605 -s 0 -d 1 -p cbr -e 1500 -c 0 -i 27 -a 0 -x {0.0 3.1 27 ------- null}
h -t 0.605 -s 0 -d 1 -p cbr -e 1500 -c 0 -i 27 -a 0 -x {0.0 3.1 -1 ------- null}
r -t 0.606 -s 0 -d 1 -p cbr -e 1500 -c 0 -i 24 -a 0 -x {0.0 3.1 24 ------- null}
+ -t 0.606 -s 1 -d 2 -p cbr -e 1500 -c 0 -i 24 -a 0 -x {0.0 3.1 24 ------- null}
- -t 0.606 -s 1 -d 2 -p cbr -e 1500 -c 0 -i 24 -a 0 -x {0.0 3.1 24 ------- null}
h -t 0.606 -s 1 -d 2 -p cbr -e 1500 -c 0 -i 24 -a 0 -x {0.0 3.1 -1 ------- null}
r -t 0.607 -s 1 -d 2 -p cbr -e 1500 -c 0 -i 21 -a 0 -x {0.0 3.1 21 ------- null}
+ -t 0.607 -s 2 -d 3 -p cbr -e 1500 -c 0 -i 21 -a 0 -x {0.0 3.1 21 ------- null}
- -t 0.607 -s 2 -d 3 -p cbr -e 1500 -c 0 -i 21 -a 0 -x {0.0 3.1 21 ------- null}
h -t 0.607 -s 2 -d 3 -p cbr -e 1500 -c 0 -i 21 -a 0 -x {0.0 3.1 -1 ------- null}
r -t 0.608 -s 2 -d 3 -p cbr -e 1500 -c 0 -i 18 -a 0 -x {0.0 3.1 18 ------- null}
+ -t 0.62 -s 0 -d 1 -p cbr -e 1500 -c 0 -i 28 -a 0 -x {0.0 3.1 28 ------- null}
- -t 0.62 -s 0 -d 1 -p cbr -e 1500 -c 0 -i 28 -a 0 -x {0.0 3.1 28 ------- null}
h -t 0.62 -s 0 -d 1 -p cbr -e 1500 -c 0 -i 28 -a 0 -x {0.0 3.1 -1 ------- null}
r -t 0.621 -s 0 -d 1 -p cbr -e 1500 -c 0 -i 25 -a 0 -x {0.0 3.1 25 ------- null}
+ -t 0.621 -s 1 -d 2 -p cbr -e 1500 -c 0 -i 25 -a 0 -x {0.0 3.1 25 ------- null}
- -t 0.621 -s 1 -d 2 -p cbr -e 1500 -c 0 -i 25 -a 0 -x {0.0 3.1 25 ------- null}
h -t 0.621 -s 1 -d 2 -p cbr -e 1500 -c 0 -i 25 -a 0 -x {0.0 3.1 -1 ------- null}
r -t 0.622 -s 1 -d 2 -p cbr -e 1500 -c 0 -i 22 -a 0 -x {0.0 3.1 22 ------- null}
+ -t 0.622 -s 2 -d 3 -p cbr -e 1500 -c 0 -i 22 -a 0 -x {0.0 3.1 22 ------- null}
- -t 0.622 -s 2 -d 3 -p cbr -e 1500 -c 0 -i 22 -a 0 -x {0.0 3.1 22 ------- null}
h -t 0.622 -s 2 -d 3 -p cbr -e 1500 -c 0 -i 22 -a 0 -x {0.0 3.1 -1 ------- null}
r -t 0.623 -s 2 -d 3 -p cbr -e 1500 -c 0 -i 19 -a 0 -x {0.0 3.1 19 ------- null}
+ -t 0.635 -s 0 -d 1 -p cbr -e 1500 -c 0 -i 29 -a 0 -x {0.0 3.1 29 ------- null}
- -t 0.635 -s 0 -d 1 -p cbr -e 1500 -c 0 -i 29 -a 0 -x {0.0 3.1 29 ------- null}
h -t 0.635 -s 0 -d 1 -p cbr -e 1500 -c 0 -i 29 -a 0 -x {0.0 3.1 -1 ------- null}
r -t 0.636 -s 0 -d 1 -p cbr -e 1500 -c 0 -i 26 -a 0 -x {0.0 3.1 26 ------- null}
+ -t 0.636 -s 1 -d 2 -p cbr -e 1500 -c 0 -i 26 -a 0 -x {0.0 3.1 26 ------- null}
- -t 0.636 -s 1 -d 2 -p cbr -e 1500 -c 0 -i 26 -a 0 -x {0.0 3.1 26 ------- null}
h -t 0.636 -s 1 -d 2 -p cbr -e 1500 -c 0 -i 26 -a 0 -x {0.0 3.1 -1 ------- null}
r -t 0.637 -s 1 -d 2 -p cbr -e 1500 -c 0 -i 23 -a 0 -x {0.0 3.1 23 ------- null}
+ -t 0.637 -s 2 -d 3 -p cbr -e 1500 -c 0 -i 23 -a 0 -x {0.0 3.1 23 ------- null}
- -t 0.637 -s 2 -d 3 -p cbr -e 1500 -c 0 -i 23 -a 0 -x {0.0 3.1 23 ------- null}
h -t 0.637 -s 2 -d 3 -p cbr -e 1500 -c 0 -i 23 -a 0 -x {0.0 3.1 -1 ------- null}
r -t 0.638 -s 2 -d 3 -p cbr -e 1500 -c 0 -i 20 -a 0 -x {0.0 3.1 20 ------- null}
+ -t 0.65 -s 0 -d 1 -p cbr -e 1500 -c 0 -i 30 -a 0 -x {0.0 3.1 30 ------- null}
- -t 0.65 -s 0 -d 1 -p cbr -e 1500 -c 0 -i 30 -a 0 -x {0.0 3.1 30 ------- null}
h -t 0.65 -s 0 -d 1 -p cbr -e 1500 -c 0 -i 30 -a 0 -x {0.0 3.1 -1 ------- null}
r -t 0.651 -s 0 -d 1 -p cbr -e 1500 -c 0 -i 27 -a 0 -x {0.0 3.1 27 ------- null}
+ -t 0.651 -s 1 -d 2 -p cbr -e 1500 -c 0 -i 27 -a 0 -x {0.0 3.1 27 ------- null}
- -t 0.651 -s 1 -d 2 -p cbr -e 1500 -c 0 -i 27 -a 0 -x {0.0 3.1 27 ------- null}
h -t 0.651 -s 1 -d 2 -p cbr -e 1500 -c 0 -i 27 -a 0 -x {0.0 3.1 -1 ------- null}
r -t 0.652 -s 1 -d 2 -p cbr -e 1500 -c 0 -i 24 -a 0 -x {0.0 3.1 24 ------- null}
+ -t 0.652 -s 2 -d 3 -p cbr -e 1500 -c 0 -i 24 -a 0 -x {0.0 3.1 24 ------- null}
- -t 0.652 -s 2 -d 3 -p cbr -e 1500 -c 0 -i 24 -a 0 -x {0.0 3.1 24 ------- null}
h -t 0.652 -s 2 -d 3 -p cbr -e 1500 -c 0 -i 24 -a 0 -x {0.0 3.1 -1 ------- null}
r -t 0.653 -s 2 -d 3 -p cbr -e 1500 -c 0 -i 21 -a 0 -x {0.0 3.1 21 ------- null}
+ -t 0.665 -s 0 -d 1 -p cbr -e 1500 -c 0 -i 31 -a 0 -x {0.0 3.1 31 ------- null}
- -t 0.665 -s 0 -d 1 -p cbr -e 1500 -c 0 -i 31 -a 0 -x {0.0 3.1 31 ------- null}
h -t 0.665 -s 0 -d 1 -p cbr -e 1500 -c 0 -i 31 -a 0 -x {0.0 3.1 -1 ------- null}
r -t 0.666 -s 0 -d 1 -p cbr -e 1500 -c 0 -i 28 -a 0 -x {0.0 3.1 28 ------- null}
+ -t 0.666 -s 1 -d 2 -p cbr -e 1500 -c 0 -i 28 -a 0 -x {0.0 3.1 28 ------- null}
- -t 0.666 -s 1 -d 2 -p cbr -e 1500 -c 0 -i 28 -a 0 -x {0.0 3.1 28 ------- null}
h -t 0.666 -s 1 -d 2 -p cbr -e 1500 -c 0 -i 28 -a 0 -x {0.0 3.1 -1 ------- null}
r -t 0.667 -s 1 -d 2 -p cbr -e 1500 -c 0 -i 25 -a 0 -x {0.0 3.1 25 ------- null}
+ -t 0.667 -s 2 -d 3 -p cbr -e 1500 -c 0 -i 25 -a 0 -x {0.0 3.1 25 ------- null}
- -t 0.667 -s 2 -d 3 -p cbr -e 1500 -c 0 -i 25 -a 0 -x {0.0 3.1 25 ------- null}
h -t 0.667 -s 2 -d 3 -p cbr -e 1500 -c 0 -i 25 -a 0 -x {0.0 3.1 -1 ------- null}
r -t 0.668 -s 2 -d 3 -p cbr -e 1500 -c 0 -i 22 -a 0 -x {0.0 3.1 22 ------- null}
+ -t 0.68 -s 0 -d 1 -p cbr -e 1500 -c 0 -i 32 -a 0 -x {0.0 3.1 32 ------- null}
- -t 0.68 -s 0 -d 1 -p cbr -e 1500 -c 0 -i 32 -a 0 -x {0.0 3.1 32 ------- null}
h -t 0.68 -s 0 -d 1 -p cbr -e 1500 -c 0 -i 32 -a 0 -x {0.0 3.1 -1 ------- null}
r -t 0.681 -s 0 -d 1 -p cbr -e 1500 -c 0 -i 29 -a 0 -x {0.0 3.1 29 ------- null}
+ -t 0.681 -s 1 -d 2 -p cbr -e 1500 -c 0 -i 29 -a 0 -x {0.0 3.1 29 ------- null}
- -t 0.681 -s 1 -d 2 -p cbr -e 1500 -c 0 -i 29 -a 0 -x {0.0 3.1 29 ------- null}
h -t 0.681 -s 1 -d 2 -p cbr -e 1500 -c 0 -i 29 -a 0 -x {0.0 3.1 -1 ------- null}
r -t 0.682 -s 1 -d 2 -p cbr -e 1500 -c 0 -i 26 -a 0 -x {0.0 3.1 26 ------- null}
+ -t 0.682 -s 2 -d 3 -p cbr -e 1500 -c 0 -i 26 -a 0 -x {0.0 3.1 26 ------- null}
- -t 0.682 -s 2 -d 3 -p cbr -e 1500 -c 0 -i 26 -a 0 -x {0.0 3.1 26 ------- null}
h -t 0.682 -s 2 -d 3 -p cbr -e 1500 -c 0 -i 26 -a 0 -x {0.0 3.1 -1 ------- null}
r -t 0.683 -s 2 -d 3 -p cbr -e 1500 -c 0 -i 23 -a 0 -x {0.0 3.1 23 ------- null}
+ -t 0.695 -s 0 -d 1 -p cbr -e 1500 -c 0 -i 33 -a 0 -x {0.0 3.1 33 ------- null}
- -t 0.695 -s 0 -d 1 -p cbr -e 1500 -c 0 -i 33 -a 0 -x {0.0 3.1 33 ------- null}